<VTKFile type="UnstructuredGrid" version="0.1" byte_order="BigEndian">
  <UnstructuredGrid>
        <Piece NumberOfPoints="8000" NumberOfCells="0" Time= "0.07">      <Points>
        <DataArray name="Position" type="Float32"  NumberOfComponents= "3"  format="ascii">

113.359 12.7416 0 
113.145 12.7541 0 
113.23 12.8024 0 
113.613 12.977 0 
113.453 12.8986 0 
113.013 13.1888 0 
113.406 12.7976 0 
113.443 12.9674 0 
113.449 12.9534 0 
113.384 14.2744 0 
114.481 13.2651 0 
113.742 12.6314 0 
113.607 12.7519 0 
113.84 14.3501 0 
113.541 12.887 0 
113.169 12.8586 0 
113.019 13.0489 0 
113.866 14.3665 0 
113.704 12.8615 0 
113.713 12.9112 0 
113.526 14.1394 0 
113.758 12.9029 0 
114.167 13.3822 0 
113.756 13.9211 0 
113.706 12.8529 0 
113.434 12.7226 0 
113.372 14.275 0 
113.365 12.8915 0 
113.624 12.9465 0 
113.685 12.7147 0 
113.576 12.9398 0 
113.074 13.184 0 
113.068 12.9219 0 
114.553 14.2194 0 
112.897 13.0949 0 
113.511 14.4121 0 
113.326 12.5558 0 
113.233 14.609 0 
113.532 14.1005 0 
113.428 14.7929 0 
112.909 13.004 0 
114.456 12.8152 0 
114.22 13.265 0 
113.648 13.9292 0 
114.104 16.0253 0 
114.35 16.8676 0 
114.711 16.443 0 
113.353 16.5344 0 
113.878 15.0264 0 
113.164 16.454 0 
113.462 16.0762 0 
113.899 17.3971 0 
114.347 17.0921 0 
113.674 16.995 0 
113.678 15.8328 0 
112.914 16.8183 0 
113.909 15.9928 0 
113.392 16.4773 0 
112.802 16.5476 0 
113.21 17.1063 0 
113.236 16.0981 0 
114.644 16.8462 0 
113.18 16.6114 0 
114.047 16.1622 0 
113.887 16.3256 0 
114.76 16.876 0 
113.362 15.3503 0 
113.101 16.4961 0 
114.434 16.5179 0 
113.143 16.6365 0 
114.684 16.5375 0 
114.428 17.339 0 
113.432 16.7923 0 
113.361 16.6196 0 
114.21 16.9147 0 
114.634 16.8354 0 
113.576 16.3795 0 
113.669 16.6923 0 
113.364 16.4457 0 
114.703 15.9221 0 
114.159 16.2196 0 
113.256 16.6143 0 
113.373 16.2062 0 
113.279 16.2398 0 
114.639 16.1181 0 
114.426 16.8461 0 
113.612 15.8291 0 
113.993 16.6369 0 
114.096 16.2362 0 
114.312 16.7369 0 
113.173 16.5575 0 
113.069 16.6114 0 
113.82 16.2037 0 
112.915 16.6384 0 
113.362 16.5274 0 
114.789 15.7743 0 
113.176 16.6349 0 
113.363 15.953 0 
112.918 16.7858 0 
114.024 16.0765 0 
114.17 16.9618 0 
113.872 16.2273 0 
114.052 16.2526 0 
113.965 16.0896 0 
113.179 16.5552 0 
114.28 16.7919 0 
113.92 16.2796 0 
114.094 16.6978 0 
114.784 15.7619 0 
113.992 15.9683 0 
113.305 16.3312 0 
112.565 16.6279 0 
114.05 17.304 0 
114.149 16.2147 0 
113.638 17.2386 0 
114.18 16.9713 0 
113.706 17.6157 0 
113.638 15.7419 0 
112.758 16.4915 0 
114.267 16.7497 0 
114.601 16.8475 0 
113.917 16.2393 0 
113.476 16.0516 0 
113.885 16.1562 0 
113.072 16.5805 0 
114.54 16.5568 0 
113.188 16.6072 0 
113.322 17.5245 0 
114.541 17.2073 0 
112.577 16.6125 0 
114.189 16.7933 0 
113.89 16.7177 0 
114.489 16.2337 0 
113.268 16.5527 0 
114.101 16.2235 0 
114.182 16.9938 0 
114.003 15.97 0 
113.422 16.4319 0 
113.109 16.5479 0 
113.614 15.8602 0 
113.201 16.4622 0 
114.682 15.8842 0 
113.348 16.2841 0 
114.179 16.2405 0 
113.296 16.2573 0 
112.921 16.6212 0 
114.536 16.7484 0 
113.418 15.9706 0 
113.937 16.7478 0 
113.89 16.6852 0 
113.583 15.9207 0 
113.774 17.5225 0 
114.437 16.9051 0 
113.457 16.7472 0 
113.47 15.9776 0 
113.361 16.1902 0 
114.324 16.2485 0 
112.593 16.579 0 
114.438 16.0757 0 
113.829 16.1577 0 
112.684 16.4897 0 
113.793 17.5346 0 
114.541 16.5431 0 
114.022 16.7685 0 
114.207 16.608 0 
113.22 16.1197 0 
113.852 16.1779 0 
114.404 16.4856 0 
114.57 16.5733 0 
112.826 16.5086 0 
114.56 16.5779 0 
114.44 16.8859 0 
112.799 16.4959 0 
114.417 16.6864 0 
112.642 17.119 0 
112.601 15.9083 0 
114.598 16.8048 0 
114.501 15.2664 0 
113.807 19.0516 0 
113.993 19.2596 0 
112.973 18.4169 0 
112.607 19.5359 0 
114.294 19.1644 0 
113.109 18.4496 0 
113.04 17.9638 0 
112.788 17.9462 0 
113.46 18.6825 0 
113.639 18.0944 0 
112.887 18.6302 0 
113.947 19.5946 0 
113.471 18.5968 0 
113.619 18.454 0 
114.273 19.0631 0 
113.163 18.2757 0 
112.627 19.4657 0 
113.91 18.3935 0 
114.242 19.0747 0 
112.932 18.6744 0 
113.445 18.7999 0 
112.592 19.3201 0 
113.456 17.8686 0 
113.355 18.6618 0 
114.49 18.7281 0 
113.933 19.2714 0 
113.553 18.5665 0 
113.482 18.6 0 
113.476 17.9767 0 
113.814 18.116 0 
113.204 18.3266 0 
113.031 17.9478 0 
114.485 18.6666 0 
112.912 18.7792 0 
113.963 19.0398 0 
113.891 18.0437 0 
114.648 19.3475 0 
113.549 18.8287 0 
112.611 19.5071 0 
113.71 18.7729 0 
114.647 18.9824 0 
113.136 18.6654 0 
113.164 18.6657 0 
113.241 18.6242 0 
113.415 17.7648 0 
113.67 18.8031 0 
113.039 18.7338 0 
112.763 18.0403 0 
113.647 18.7612 0 
113.249 18.2846 0 
114.598 18.1116 0 
112.852 18.41 0 
112.725 19.667 0 
113.847 17.8707 0 
112.849 18.3138 0 
114.415 18.7075 0 
114.146 17.7466 0 
112.999 18.6899 0 
114.293 19.0979 0 
113.05 17.6576 0 
114.444 18.773 0 
114.658 19.7695 0 
113.347 18.7404 0 
113.111 18.4706 0 
112.642 19.1396 0 
114.272 19.1075 0 
113.523 18.4102 0 
113.809 19.0488 0 
114.33 19.7172 0 
113.933 17.9871 0 
113.043 17.9622 0 
113.484 17.6867 0 
113.619 18.762 0 
114.587 19.3435 0 
113.5 17.6899 0 
113.432 18.2628 0 
113.374 17.5658 0 
114.383 20.2946 0 
114.212 21.5253 0 
114.173 21.0783 0 
114.658 20.9645 0 
112.428 21.5495 0 
114.461 20.9015 0 
114.655 20.9529 0 
114.535 21.0913 0 
114.504 20.9177 0 
114.633 21.0811 0 
114.731 21.0659 0 
113.995 21.0367 0 
112.975 20.9445 0 
114.493 20.9245 0 
114.131 20.4013 0 
114.678 20.8284 0 
114.868 13.8539 0 
115.688 14.3898 0 
117.333 13.3784 0 
115.062 12.6898 0 
116.097 13.6333 0 
116.808 13.6795 0 
114.796 14.0015 0 
116.62 13.4666 0 
114.79 13.831 0 
115.825 13.5739 0 
115.888 13.6046 0 
117.123 14.4109 0 
115.967 13.321 0 
116.041 13.7105 0 
116.605 13.4668 0 
116.136 13.6787 0 
116.636 12.6445 0 
114.995 13.6934 0 
116.973 14.5742 0 
116.092 13.7514 0 
117.204 13.4109 0 
114.9 12.8926 0 
115.983 13.6336 0 
117.253 14.5202 0 
115.581 13.5138 0 
115.095 12.7817 0 
116.764 12.661 0 
116.203 13.5027 0 
115.48 12.6003 0 
115.407 13.6138 0 
115.986 13.7407 0 
115.385 12.6419 0 
116.541 13.0585 0 
115.42 13.7062 0 
114.762 12.9825 0 
114.699 12.9644 0 
115.58 13.6811 0 
115.796 14.4889 0 
115.516 14.5784 0 
115.571 13.5278 0 
116.577 13.4225 0 
116.086 13.5996 0 
115.625 12.6076 0 
117.047 14.3978 0 
116.87 13.4971 0 
114.868 13.9056 0 
117.008 13.0844 0 
115.798 14.554 0 
114.937 13.7557 0 
115.207 12.9291 0 
114.874 13.8798 0 
115.375 12.7125 0 
115.272 12.8728 0 
116.135 13.6218 0 
116.974 14.5008 0 
115.585 14.5404 0 
115.777 13.5511 0 
115.069 12.8977 0 
116.075 13.6807 0 
116.017 13.6496 0 
116.531 13.141 0 
116.766 12.6899 0 
116.863 13.6975 0 
115.805 13.5257 0 
116.498 12.5681 0 
115.911 13.7594 0 
115.194 13.6843 0 
115.39 14.5656 0 
114.902 13.8173 0 
116.038 13.5673 0 
115.391 12.5971 0 
114.91 12.8643 0 
115.005 13.7012 0 
116.113 13.642 0 
116.23 13.5559 0 
115.361 14.5844 0 
116.114 13.3009 0 
116.767 12.9614 0 
117.228 14.5747 0 
116.132 13.5409 0 
115.259 12.9838 0 
115.939 13.5683 0 
117.182 13.1103 0 
116.042 13.7655 0 
117.106 14.4239 0 
114.87 14.0056 0 
116.866 13.8156 0 
117.022 14.5099 0 
117.096 14.5748 0 
116.046 13.6789 0 
115.229 13.6507 0 
117.149 13.5068 0 
116.232 13.4388 0 
117.218 14.4986 0 
116.061 13.6306 0 
114.732 13.8751 0 
116.307 13.5677 0 
115.177 13.0301 0 
117.089 13.019 0 
116.69 13.0311 0 
116.128 13.6214 0 
114.896 12.7142 0 
116.023 13.6895 0 
115.538 14.5149 0 
116.81 12.649 0 
115.735 13.6433 0 
115.853 13.5773 0 
116.182 13.7017 0 
117.14 14.5626 0 
116.186 13.5287 0 
116.535 13.5925 0 
116.957 14.6568 0 
115.563 13.5429 0 
116.447 12.9398 0 
115.929 13.7509 0 
114.968 12.7072 0 
114.824 13.9792 0 
115.944 13.6099 0 
116.718 12.5673 0 
117.058 14.539 0 
115.194 12.7254 0 
115.091 12.8327 0 
115.398 14.5551 0 
114.913 13.7426 0 
115.852 13.5611 0 
116.723 13.4525 0 
116.102 13.6386 0 
116.579 13.5274 0 
116.098 13.9755 0 
114.807 12.8356 0 
117.179 14.5477 0 
116.184 13.5092 0 
115.946 13.5764 0 
116.762 12.6817 0 
116.228 13.6003 0 
115.303 12.888 0 
116.817 13.7032 0 
117.091 14.6795 0 
115.11 12.8243 0 
115.878 13.5541 0 
114.827 12.9883 0 
116.033 13.6377 0 
116.166 13.5166 0 
116.849 13.0493 0 
115.561 14.6907 0 
116.491 13.3656 0 
115.838 13.5492 0 
115.162 12.5726 0 
116.847 13.7878 0 
116.953 14.6532 0 
115.514 13.6027 0 
117.212 14.5869 0 
116.664 13.8069 0 
115.697 13.702 0 
115.631 13.5648 0 
116.754 12.5881 0 
115.632 14.7664 0 
116.107 13.7217 0 
117.062 13.1659 0 
116.031 13.366 0 
116.917 14.2773 0 
116.463 16.3463 0 
117.25 16.1112 0 
115.973 17.1118 0 
116.118 15.9605 0 
114.878 15.794 0 
115.971 15.2419 0 
114.782 16.0878 0 
115.453 16.2817 0 
116.156 15.7645 0 
116.025 16.8183 0 
116.057 15.5297 0 
114.971 16.5713 0 
114.89 16.2474 0 
115.475 15.9826 0 
115.803 16.219 0 
115.281 16.0163 0 
116.487 16.6932 0 
115.4 16.1091 0 
116.805 16.2731 0 
116.845 16.3164 0 
117.328 15.2186 0 
115.321 16.2244 0 
116.859 17.341 0 
115.202 16.4953 0 
114.953 15.9448 0 
115.642 17.2898 0 
114.998 15.6232 0 
115.726 15.215 0 
114.946 15.7724 0 
116.687 16.0617 0 
115.155 16.1427 0 
115.791 16.1447 0 
116.881 16.6132 0 
115.581 15.1574 0 
115.717 16.1434 0 
115.978 16.0437 0 
115.142 16.5915 0 
115.077 15.4134 0 
115.551 15.1922 0 
116.286 16.0703 0 
115.119 15.7271 0 
115.778 16.1014 0 
116.01 16.8178 0 
115.673 15.2981 0 
116.455 15.4065 0 
115.654 16.3192 0 
116.73 14.9339 0 
115.772 16.424 0 
115.005 16.5785 0 
116.839 15.7577 0 
115.362 15.0518 0 
116.592 16.6781 0 
116.182 16.2805 0 
115.771 16.4828 0 
115.075 16.0976 0 
116.105 15.9127 0 
115.178 15.5918 0 
115.559 16.3415 0 
115.774 16.3594 0 
116.439 16.6089 0 
115.597 16.1822 0 
115.416 16.041 0 
115.51 17.0114 0 
115.583 16.4906 0 
115.659 17.48 0 
116.47 16.9887 0 
116.331 15.3142 0 
115.041 15.9764 0 
115.426 16.2862 0 
116.02 16.2275 0 
115.806 16.5808 0 
115.783 16.2356 0 
115.4 15.6244 0 
116.429 16.1787 0 
115.775 16.1497 0 
115.883 15.1835 0 
115.987 15.1171 0 
115.434 16.0038 0 
114.853 16.3066 0 
116.241 15.6063 0 
115.146 15.7915 0 
116.746 15.7639 0 
116.16 15.0333 0 
115.935 16.3088 0 
115.481 16.3216 0 
[...]
      <PointData Vectors="vector">
        <DataArray type="Float32" Name="Velocity" NumberOfComponents="3" format="ascii">

-66.817 67.2222 0 
-61.8634 -33.578 0 
-64.7509 -69.2531 0 
-62.2295 -23.3489 0 
-45.7382 -69.8661 0 
-69.7208 -27.3831 0 
-55.7551 -69.7932 0 
-69.3121 -58.3599 0 
-69.5199 -44.7623 0 
-69.1573 -65.8109 0 
-69.436 -64.67 0 
-65.1022 -56.4462 0 
-58.1608 -69.6685 0 
-63.8636 -65.1285 0 
-69.8427 -59.6922 0 
-69.3904 -66.2298 0 
-69.4046 -65.4606 0 
-49.8207 -24.8056 0 
-37.5098 -34.8579 0 
-54.4579 -69.7437 0 
-59.4596 -35.7374 0 
-54.4522 -68.8628 0 
-69.4968 -28.328 0 
-61.74 -29.7419 0 
-36.9468 -31.1096 0 
-58.8272 -68.5939 0 
-55.4918 -69.747 0 
-54.0446 -54.3716 0 
-59.0873 -35.3747 0 
-27.3709 -41.0502 0 
-36.3634 -31.1241 0 
-60.2836 -18.6238 0 
-54.504 -61.8058 0 
-54.5203 -59.2866 0 
-49.8644 -27.8559 0 
-55.0265 -58.3927 0 
-47.9537 -38.1233 0 
-69.7413 -28.0163 0 
-69.2483 -56.0373 0 
-46.0944 -30.9884 0 
-57.4184 -59.2141 0 
-65.3578 -67.9947 0 
-69.1693 -57.9508 0 
-61.1136 -22.9909 0 
-49.8269 -25.2852 0 
-69.5399 -38.3733 0 
-65.6094 -68.9095 0 
-56.9782 -66.1287 0 
-54.4311 -67.3396 0 
-69.2625 -59.1846 0 
-65.4095 -55.5535 0 
-69.5759 -59.0575 0 
-54.7144 -67.5533 0 
-68.1039 -14.519 0 
-61.7621 -66.0157 0 
-69.8395 -47.5386 0 
-34.3253 -45.7627 0 
-52.191 -69.8234 0 
-35.5547 -54.1758 0 
-54.5631 -28.1227 0 
-24.869 -23.4413 0 
-69.8399 -46.8278 0 
-39.6626 -56.9227 0 
-50.1615 -38.1244 0 
-65.7324 -18.5882 0 
-67.576 -18.0248 0 
-44.5707 -0.293778 0 
-41.2557 -28.5907 0 
-48.6375 -17.6728 0 
-59.418 1.41764 0 
-43.108 2.89692 0 
-59.4869 7.20516 0 
-38.9023 -11.8619 0 
-39.2097 -29.6122 0 
-24.6823 15.5853 0 
-36.5581 -7.39598 0 
-69.4591 -14.5647 0 
-44.5231 34.3662 0 
-40.4915 -37.5743 0 
-43.8932 -28.0566 0 
-44.7182 14.7163 0 
-41.0169 17.7838 0 
-53.183 -35.6606 0 
-67.7308 -30.0756 0 
-48.8279 -28.4015 0 
-42.3316 -5.7223 0 
-43.7021 -5.47756 0 
-68.5597 10.9494 0 
-21.2746 5.38071 0 
-54.0193 -0.0532029 0 
-24.9775 8.66371 0 
-69.3288 -20.0994 0 
-50.7297 -18.1652 0 
-58.6124 6.03047 0 
-38.5458 2.92749 0 
-24.9999 -33.0239 0 
-51.6975 -40.0532 0 
-28.4643 -4.49859 0 
-62.7482 -2.91203 0 
-69.5113 -20.1678 0 
-25.0652 9.77533 0 
-59.9034 -60.94 0 
-45.8993 14.0301 0 
-33.5308 5.60678 0 
-31.5193 -14.2966 0 
-50.6328 -16.2919 0 
-43.658 6.60018 0 
-39.3935 10.2267 0 
-50.4658 -49.0607 0 
-45.0029 13.9451 0 
-64.1813 -56.1822 0 
-56.9446 -19.2323 0 
-59.0004 5.02391 0 
-44.0275 -26.5674 0 
-64.24 -45.7322 0 
-56.7172 -63.716 0 
-40.1226 10.1608 0 
-46.1301 -18.9303 0 
-57.8659 -6.02447 0 
-27.1602 0.491748 0 
-25.4271 18.732 0 
-28.8732 4.11071 0 
-50.5546 -44.8052 0 
-52.2737 -11.9508 0 
-42.7642 -14.9168 0 
-46.4274 3.71628 0 
-54.1053 -36.5602 0 
-57.0913 0.224253 0 
-60.208 -8.99679 0 
-46.0836 -5.97795 0 
-24.8995 12.9954 0 
-49.3381 -47.3928 0 
-41.9242 -6.93635 0 
-68.4834 -23.0133 0 
-39.892 -35.9989 0 
-46.4783 -44.0753 0 
-54.1575 -19.4708 0 
-42.8466 15.6304 0 
-43.9139 -29.3401 0 
-39.7352 -29.1893 0 
-31.9927 -2.20379 0 
-31.4626 -8.20505 0 
-66.0722 -30.067 0 
-68.7051 -16.6385 0 
-69.3232 -14.6497 0 
-45.075 20.4582 0 
-48.4112 -23.7544 0 
-68.4801 -17.8513 0 
-61.562 -9.63394 0 
-68.8887 -25.4931 0 
-24.9009 12.5888 0 
-44.9842 2.64108 0 
-68.4509 -15.8384 0 
-53.5479 1.70152 0 
-43.4518 -29.4451 0 
-42.2107 -24.7323 0 
-69.084 -21.9466 0 
-42.8886 -32.2292 0 
-59.3545 -1.29963 0 
-66.6567 5.61055 0 
-41.0939 -28.2849 0 
-60.7361 5.68004 0 
-30.2853 3.92741 0 
-69.6167 13.9136 0 
-48.9425 22.4484 0 
-63.9619 -8.6419 0 
-46.794 20.9558 0 
-45.207 20.582 0 
-40.3203 -39.283 0 
-45.7331 -34.2148 0 
-39.5459 -29.8728 0 
-50.1974 -44.7125 0 
-47.1235 -12.4053 0 
-56.9037 8.22371 0 
-57.9131 9.34258 0 
-44.2359 -32.3461 0 
-56.3384 -7.84574 0 
-44.4517 -31.8248 0 
-42.2932 2.98684 0 
-68.6424 -18.4125 0 
-59.6091 -41.7933 0 
-34.4538 -10.7762 0 
-69.536 -49.3334 0 
-68.439 -24.7072 0 
-52.3778 -11.3803 0 
-36.2394 -4.64595 0 
-66.9403 -25.6707 0 
-59.3649 7.15652 0 
-34.8997 1.63852 0 
-58.5936 5.81574 0 
-59.9463 -58.1797 0 
-43.4863 10.1887 0 
-69.0479 18.7448 0 
-59.4858 6.44796 0 
-39.8678 -37.7963 0 
-40.1801 -54.9053 0 
-44.9918 12.7548 0 
-55.8788 2.24521 0 
-64.6911 -18.8991 0 
-25.2628 3.79358 0 
-53.0679 -5.97328 0 
-45.1088 21.658 0 
-46.3074 -60.2226 0 
-53.8882 -4.43352 0 
-69.0737 -21.7501 0 
-33.7396 6.82437 0 
-31.2138 -2.33295 0 
-47.0763 -35.1346 0 
-50.5092 -37.5604 0 
-24.6546 13.872 0 
-55.3759 -46.8168 0 
-46.9767 -34.8881 0 
-26.9389 18.7653 0 
-62.7169 -6.66171 0 
-17.2583 9.11431 0 
-66.883 5.63646 0 
-45.4322 -12.0758 0 
-63.8201 -8.92226 0 
-59.6079 -42.8984 0 
-30.5255 -9.04568 0 
-61.811 9.05932 0 
-58.9656 2.85793 0 
-42.1028 -27.3622 0 
-46.1028 4.10259 0 
-37.04 1.5406 0 
-33.006 -10.2357 0 
-34.4629 3.29954 0 
-47.4206 -6.14308 0 
-59.6676 -38.4142 0 
-69.0665 17.869 0 
-66.4518 -39.9355 0 
-67.8992 -25.725 0 
-52.5197 -14.8441 0 
-58.5175 5.85892 0 
-41.6005 -52.4008 0 
-66.7973 -26.2085 0 
-59.0568 7.75984 0 
-61.2941 5.81562 0 
-46.7549 -3.40354 0 
-59.5917 -7.36745 0 
-24.6325 4.99378 0 
-68.5741 -18.0685 0 
-64.6664 -3.35177 0 
-57.7942 -3.3055 0 
-46.2097 -29.4885 0 
-61.561 5.79282 0 
-61.2589 -24.4094 0 
-69.5126 -19.0982 0 
-42.1038 -2.81077 0 
-44.4077 5.64384 0 
-44.8086 -26.6829 0 
-63.0686 2.13813 0 
-41.9485 -60.5534 0 
-69.6612 -3.2264 0 
-48.5551 -39.1262 0 
-69.1076 -5.83149 0 
-57.501 -3.01429 0 
-47.1873 -31.5965 0 
-26.3624 10.2209 0 
-29.4353 -14.532 0 
-67.2789 63.9904 0 
-68.8958 19.5486 0 
-21.9891 -8.92576 0 
-67.1077 67.4894 0 
-62.2291 51.211 0 
-67.2505 46.9935 0 
-41.6884 67.4721 0 
-34.0527 55.5833 0 
-67.1839 64.8447 0 
-29.2102 -5.52322 0 
-41.8188 67.4879 0 
-41.768 61.328 0 
-49.173 19.5719 0 
-60.5759 12.0009 0 
-22.0151 2.8466 0 
-62.4396 62.432 0 
-69.137 19.0657 0 
-27.2007 59.5739 0 
-23.9519 5.42011 0 
-67.256 67.4877 0 
-41.2515 67.485 0 
-69.257 19.6087 0 
-47.1334 40.0801 0 
-56.556 67.4958 0 
-69.8533 12.9309 0 
-29.2188 -12.6071 0 
-41.8417 66.2927 0 
-41.7931 67.4572 0 
-47.3012 41.1368 0 
-51.6626 -15.3207 0 
-35.0787 53.2879 0 
-62.1421 62.5 0 
-48.1114 1.69623 0 
-58.312 40.839 0 
-69.8549 12.1994 0 
-67.1292 67.487 0 
-29.5842 -12.2701 0 
-53.086 17.2002 0 
-46.3307 16.6848 0 
-41.1317 44.5147 0 
-57.3058 5.30269 0 
-31.0301 64.4579 0 
-60.0933 11.7297 0 
-69.1057 19.4049 0 
-51.2878 -4.70897 0 
-31.3296 65.5964 0 
-69.4371 -5.14018 0 
-66.3122 61.1106 0 
-66.934 67.5 0 
-66.6522 67.5 0 
-55.6295 32.3303 0 
-31.2772 66.6376 0 
-67.0522 67.4872 0 
-67.0726 43.9028 0 
-31.5041 67.3453 0 
-62.144 62.2571 0 
-60.7572 -32.8556 0 
-67.147 56.728 0 
-50.1451 19.4291 0 
-40.0472 37.8328 0 
-67.2422 58.6398 0 
-66.214 8.02811 0 
-40.4433 22.4159 0 
-67.2226 67.4878 0 
-19.9122 -14.562 0 
-56.8654 29.1161 0 
-57.0364 19.8272 0 
-59.6904 7.10599 0 
-56.0693 62.8892 0 
-67.0811 67.4869 0 
-69.1289 12.781 0 
-22.3586 5.06328 0 
-41.9106 64.0898 0 
-59.9168 -13.9108 0 
-26.3272 10.301 0 
-12.4924 22.5885 0 
-41.5031 49.4833 0 
-62.2285 50.7645 0 
-55.4909 35.3259 0 
-31.6244 67.4612 0 
-64.3445 -30.2255 0 
-58.7975 6.44036 0 
-56.0931 33.5599 0 
-59.2608 -23.4072 0 
-47.0002 60.8965 0 
-53.4162 -10.2403 0 
-67.3418 16.1784 0 
-49.1243 42.2753 0 
-65.7918 52.3391 0 
-66.1743 50.9348 0 
-66.652 42.5903 0 
-65.7597 52.1026 0 
-65.9391 52.3239 0 
-66.9804 42.3951 0 
-44.3428 46.9427 0 
-22.7378 66.8694 0 
-62.2173 50.6156 0 
-48.5239 52.4045 0 
-66.9302 47.6195 0 
-67.3429 47.4859 0 
-66.9323 47.6327 0 
-67.0146 42.5382 0 
-67.3472 42.469 0 
-58.4511 46.7402 0 
-51.4916 52.0904 0 
-65.955 51.6917 0 
-66.1063 51.6065 0 
-52.9572 47.0123 0 
-67.0693 67.3515 0 
-49.7858 67.2285 0 
-51.8213 47.4432 0 
-66.0391 50.2565 0 
-66.8624 42.7377 0 
-65.9729 52.3237 0 
-21.8977 22.1097 0 
-49.2152 42.9657 0 
-67.2658 47.4747 0 
-66.8409 47.6984 0 
-67.2724 16.1531 0 
-67.0889 42.3993 0 
-66.7745 42.5867 0 
-66.6893 48.1643 0 
-66.0426 52.3718 0 
-26.8649 -68.5742 0 
-31.2104 -25.2069 0 
-69.3357 -64.97 0 
-55.1259 -55.1528 0 
-18.645 -17.069 0 
-48.1718 -31.7209 0 
-44.4064 -54.9714 0 
-52.8118 -24.9971 0 
-59.0206 -68.2331 0 
-49.9463 -49.8323 0 
-42.8363 -42.9971 0 
-48.1927 -31.3594 0 
-62.8213 -60.7379 0 
8.39973 -69.6775 0 
-58.3518 -58.5015 0 
-56.4045 -41.1011 0 
-46.9768 -55.8586 0 
-31.2029 -25.7221 0 
-49.8868 -24.9863 0 
-47.5606 -60.2118 0 
-59.7052 -35.6768 0 
-21.2094 -43.7574 0 
12.2407 -69.2696 0 
-55.7066 -26.9466 0 
-48.4085 -66.2858 0 
-10.6057 -54.6222 0 
-45.3426 -43.5756 0 
-43.2274 -25.0752 0 
-56.5843 -66.5906 0 
-54.3797 -50.6785 0 
-46.2197 -30.7236 0 
-42.7018 -30.8686 0 
-19.6789 -61.1031 0 
-34.7493 -66.3743 0 
-55.9213 -47.1421 0 
-49.0225 -68.4055 0 
-47.7789 -26.6332 0 
-27.2311 -54.9712 0 
-44.7596 -69.6273 0 
-62.1167 -68.0807 0 
-12.8219 -21.4359 0 
-42.689 -55.9561 0 
-26.8229 -25.2877 0 
-24.9658 -58.5646 0 
-69.4489 -69.4679 0 
-48.1492 -69.7265 0 
-50.1179 -69.7815 0 
-50.7203 -49.5843 0 
-41.4382 -63.9325 0 
-57.3882 -58.666 0 
-34.7615 -63.087 0 
-49.3341 -47.8009 0 
-21.294 -42.7193 0 
-45.2818 -47.3887 0 
-46.5976 -54.9722 0 
-10.3132 -57.4306 0 
12.4027 -69.2832 0 
-20.2446 -6.70705 0 
-49.8124 -45.4774 0 
-50.1343 -68.2768 0 
7.69712 -69.3722 0 
-50.2736 -27.6189 0 
-69.758 -43.1111 0 
-51.7787 -69.522 0 
-53.5382 -44.7039 0 
-25.5856 -43.4945 0 
-27.7249 -54.1864 0 
-57.7748 -65.5454 0 
-69.5861 -38.9048 0 
-55.7613 -55.5294 0 
-56.7503 -45.9844 0 
-55.322 -57.927 0 
-57.3078 -68.7228 0 
-46.0778 -49.8133 0 
-14.6651 -58.72 0 
-32.9874 -50.8914 0 
-43.3435 -58.8897 0 
-54.6612 -27.5222 0 
-61.7923 -69.6641 0 
-39.9495 -47.7346 0 
-10.0179 -48.406 0 
-36.6932 -34.0651 0 
-57.4931 -68.2211 0 
-15.0968 -25.727 0 
-54.7117 -55.7282 0 
-50.702 -52.9819 0 
-43.1043 -65.3189 0 
-45.932 -68.4678 0 
-26.3919 -54.9924 0 
-49.4402 -41.3336 0 
-67.1415 -32.8357 0 
-56.57 -44.9796 0 
-48.5077 -49.2373 0 
-44.9634 -36.0885 0 
-43.2962 -26.1129 0 
-65.4032 -69.6312 0 
-45.2268 -58.0897 0 
-52.6283 -49.794 0 
-46.5278 -46.171 0 
-49.9393 -36.5239 0 
-37.6391 -64.8103 0 
12.5897 -69.4177 0 
-59.9831 -25.0795 0 
-59.8209 -24.9939 0 
-65.6486 -65.3604 0 
-50.4375 -52.2779 0 
-49.4544 -45.1115 0 
-4.2855 -28.7515 0 
-51.8796 -58.7452 0 
-54.3636 -49.2661 0 
-65.7532 -59.0019 0 
5.91133 -69.3989 0 
-50.1432 -33.2313 0 
-59.4847 -34.6747 0 
-43.4036 -34.4276 0 
-12.3926 -69.6615 0 
-50.7295 -39.8707 0 
-55.0151 -59.4516 0 
-55.1863 -66.881 0 
-68.3829 -69.6835 0 
-50.7694 -69.6901 0 
-59.8258 -24.994 0 
-48.19 -30.442 0 
-50.391 -60.3311 0 
-53.1275 -51.7056 0 
-25.4845 -25.9567 0 
-11.3804 -54.4023 0 
-56.5338 -67.7352 0 
-65.2732 -58.4045 0 
-49.8386 -50.1737 0 
-55.3321 -28.8464 0 
-40.2797 -39.7748 0 
12.2344 -69.3189 0 
-59.5298 -51.8789 0 
-62.8862 -69.6046 0 
-17.6561 -19.2528 0 
-48.3759 -48.92 0 
-59.632 -69.8432 0 
-59.8277 -24.9931 0 
-57.8513 -34.7977 0 
-28.159 -36.8414 0 
-50.7231 -37.8684 0 
-46.9365 -50.2818 0 
-55.1105 -34.8589 0 
-40.0507 -62.4755 0 
-21.2507 -44.8437 0 
-44.2431 -66.8206 0 
-40.2345 -24.976 0 
-46.8607 -54.9673 0 
-52.2615 -69.6198 0 
-15.1039 -28.3923 0 
-58.7477 -55.8887 0 
-43.25 -45.2689 0 
-47.5838 -49.0222 0 
-48.5998 -66.1979 0 
0.00694858 -43.4879 0 
-58.8034 -18.7991 0 
-48.604 -52.9722 0 
-52.2625 -69.378 0 
-31.743 -32.6794 0 
-56.2467 -57.5599 0 
-14.3484 -43.7467 0 
-30.6745 -50.266 0 
-48.5601 -50.9595 0 
4.75449 -53.3556 0 
-46.9914 -34.9866 0 
-57.5572 2.57783 0 
-69.5174 22.6426 0 
-20.107 -51.5967 0 
-23.9953 12.0762 0 
-69.3447 -0.175191 0 
0.262929 -23.6255 0 
-12.9935 -38.1348 0 
-28.5775 2.52597 0 
-41.5281 -25.8302 0 
-26.694 0.846745 0 
10.832 -20.1987 0 
-68.0915 -6.6066 0 
-69.6821 -23.1347 0 
-68.6213 -48.5053 0 
-30.9903 -18.7991 0 
-55.537 -15.0177 0 
-4.86787 17.3305 0 
-46.7528 5.21972 0 
-39.9394 4.51315 0 
-62.461 -44.8308 0 
-67.1131 -34.8335 0 
-67.9402 -9.95854 0 
-2.45495 5.39363 0 
-16.6153 15.2176 0 
-36.6392 -47.8836 0 
-45.3395 -48.7815 0 
-2.30402 5.3322 0 
-28.8874 -26.265 0 
-37.3682 13.6951 0 
-69.2185 -49.4409 0 
-41.0013 -34.5378 0 
-38.5713 -47.0064 0 
-64.4878 -35.2867 0 
-67.0703 -25.9083 0 
-2.86275 5.39399 0 
0.0297312 -25.9085 0 
-33.4008 -50.1751 0 
-66.3179 -25.2427 0 
-44.8833 -35.6376 0 
-21.6002 11.7395 0 
-43.9391 -0.147525 0 
-59.6534 -38.2072 0 
-43.1939 -62.7106 0 
6.21301 -13.9669 0 
-27.3638 4.82138 0 
-33.6056 -39.9798 0 
-58.3627 4.62482 0 
-31.9891 -42.3448 0 
-34.8063 -38.6868 0 
-16.9161 14.3513 0 
-19.9374 11.6406 0 
-22.7907 16.7296 0 
-40.799 -0.466225 0 
-49.8127 -23.891 0 
-19.0349 -11.4018 0 
-41.259 11.795 0 
-50.3794 5.20078 0 
-17.5208 3.91647 0 
-20.728 -68.6069 0 
-38.2131 -15.1362 0 
-33.7408 10.4137 0 
-64.9123 -27.5032 0 
-60.7075 -7.01065 0 
-14.2708 9.74013 0 
-68.602 -36.307 0 
-12.2527 -34.2919 0 
-43.3329 -33.9191 0 
-24.8573 -69.2224 0 
-17.3371 -69.1793 0 
-39.0739 -26.8014 0 
-68.7921 0.0582738 0 
-61.0911 -14.9675 0 
-50.7009 -52.7535 0 
-24.3156 -56.9616 0 
-60.2815 -3.14232 0 
-65.558 5.66441 0 
-69.0168 -21.3061 0 
-61.7529 -37.6407 0 
-43.4641 -43.3839 0 
-27.3141 12.3119 0 
-51.8899 -65.2098 0 
-26.435 -17.5795 0 
-45.5154 -30.387 0 
-25.347 -44.3607 0 
-17.7105 4.2427 0 
-56.4533 7.90541 0 
-59.9847 -14.7098 0 
-60.0007 -40.5998 0 
-27.6481 -44.8949 0 
-64.4277 -14.1295 0 
-32.4293 -69.3273 0 
-18.9832 -69.2918 0 
-68.4903 -29.9242 0 
-12.8222 -31.625 0 
-5.7854 5.29081 0 
-25.272 10.9955 0 
-20.3353 -16.205 0 
-49.9681 2.5997 0 
-39.2317 -55.2427 0 
-48.0887 -23.2637 0 
-13.3213 -69.5111 0 
-30.5134 -38.2642 0 
-14.7948 29.8542 0 
-24.486 -69.2282 0 
-36.2066 13.2314 0 
-53.8556 -34.9953 0 
-69.0934 -45.1045 0 
-68.6485 -7.97137 0 
-41.6408 -36.8203 0 
-69.0245 -47.4492 0 
-68.9311 0.157284 0 
-69.0275 -42.3781 0 
-57.8967 -53.2635 0 
-55.9891 -8.82608 0 
-63.1113 -36.07 0 
-27.7672 -16.4646 0 
-57.0766 -26.9877 0 
-42.3112 -6.49244 0 
-69.1097 -43.4054 0 
-5.79027 -5.76341 0 
-23.7406 -69.6003 0 
-38.0644 -2.58333 0 
-16.1996 14.9839 0 
-57.8327 5.61601 0 
-48.6089 -42.129 0 
-27.1955 -9.72201 0 
-22.6959 -37.3373 0 
-62.7731 -17.8317 0 
-69.7211 -30.8737 0 
-61.6307 -33.4022 0 
-61.2749 -5.00158 0 
-22.6807 2.63378 0 
-50.4724 -33.5891 0 
-61.181 -3.40516 0 
-69.1161 -49.9279 0 
-18.3779 4.90332 0 
-59.7917 -41.4229 0 
-6.34482 7.70792 0 
-44.441 7.64888 0 
-39.9894 -24.687 0 
-67.8192 -34.9378 0 
-5.29774 19.1176 0 
-27.5234 -45.1212 0 
-0.542957 -35.3418 0 
-6.10058 23.6277 0 
-38.5857 -9.19298 0 
-25.9362 9.24521 0 
-68.9762 -49.3827 0 
-50.6159 -39.9146 0 
-19.3566 -32.4321 0 
-69.3942 -21.4552 0 
-51.0444 -18.2624 0 
-50.0113 -9.24486 0 
-58.1281 4.17362 0 
-59.6394 -1.52917 0 
-22.3336 -57.6014 0 
-45.4203 -39.4632 0 
-30.8368 -4.20581 0 
-31.7651 -50.6379 0 
-9.15597 -37.1103 0 
-31.7898 1.55242 0 
-8.49109 -8.77266 0 
-38.661 -50.9377 0 
-21.8044 0.63404 0 
-27.3915 -54.5116 0 
-68.2609 -4.03155 0 
-6.78553 -22.6932 0 
-40.801 -9.02849 0 
-7.9174 -6.01135 0 
-19.5227 -28.127 0 
-30.8968 -19.1584 0 
-28.6676 6.5382 0 
-62.6385 -2.95533 0 
-61.6122 -4.08744 0 
-16.1984 12.0217 0 
-35.3376 14.8343 0 
-40.1701 13.3927 0 
9.06521 -45.156 0 
-42.1208 -30.9049 0 
1.13673 -28.3752 0 
-65.0119 -18.3261 0 
-27.6259 -25.1486 0 
-69.4457 16.4643 0 
7.36856 -35.4248 0 
3.07512 -45.4507 0 
-60.1153 -21.4678 0 
-13.308 6.61743 0 
-25.5153 -10.096 0 
-68.7011 -4.02861 0 
-41.082 -51.7264 0 
6.55023 5.28464 0 
-55.9497 -35.0131 0 
-8.68181 -23.1313 0 
-68.0348 -35.0533 0 
-65.9034 3.08591 0 
-63.6205 -15.6135 0 
-52.3975 -38.0431 0 
-39.9959 -25.2749 0 
-65.5088 -3.65634 0 
14.4594 -36.7153 0 
-20.0489 18.8049 0 
-0.458413 -21.6876 0 
-49.8028 -35.5417 0 
-15.4094 12.2248 0 
-69.4664 -45.269 0 
-19.9014 -31.8059 0 
-13.0078 -15.3912 0 
-19.1412 15.293 0 
-22.9296 -2.08717 0 
-67.9424 -28.3604 0 
-60.0327 -44.9387 0 
-69.1419 8.46671 0 
-69.7744 -39.038 0 
-29.7841 -32.0154 0 
-11.6171 -35.0034 0 
-21.7672 12.4061 0 
-68.2294 -4.45496 0 
-2.92315 -35.0077 0 
-50.7941 -24.2306 0 
-19.6545 -13.6054 0 
-63.2568 -3.09819 0 
-32.972 -9.97404 0 
-59.5669 -2.09924 0 
-9.93219 -33.6776 0 
-63.7912 -3.91845 0 
-40.6025 -1.72221 0 
-26.5704 -5.17982 0 
-64.265 -8.83933 0 
-69.3507 5.1226 0 
-59.4144 -13.3343 0 
-65.1676 -2.8388 0 
-17.0067 11.1489 0 
-45.9559 -39.6495 0 
-38.4239 -33.2186 0 
-59.0628 -1.16104 0 
-69.3653 -26.7187 0 
-59.707 0.245653 0 
-36.6375 -11.6581 0 
-62.702 -59.4695 0 
-66.8014 -23.1018 0 
-46.249 -3.7776 0 
-56.0473 -18.5397 0 
-51.2981 -45.9639 0 
-64.3534 -38.215 0 
-29.9799 13.5551 0 
-20.9913 -65.4661 0 
0.854903 -26.2669 0 
-20.8149 -18.0954 0 
-44.4676 -64.7485 0 
-69.3233 -42.865 0 
-60.6269 11.8478 0 
-30.3594 -35.0671 0 
-69.4404 0.319961 0 
-22.505 -44.5702 0 
-28.5393 -43.1371 0 
-28.54 -43.3581 0 
5.89065 -45.9377 0 
-42.5899 11.4716 0 
-55.9128 -44.5433 0 
-53.988 2.55177 0 
-59.3847 -29.6509 0 
-51.2196 -40.2202 0 
-7.30615 5.25595 0 
-68.9942 -43.7358 0 
-54.5286 -14.2895 0 
-21.4344 19.2406 0 
-12.6024 -2.84855 0 
-69.1046 -32.433 0 
-26.0301 -44.7647 0 
-32.7 -69.2893 0 
-48.5823 -41.9923 0 
28.4497 -30.5461 0 
-59.9389 -39.5049 0 
-17.6899 13.5754 0 
-49.2837 -67.6666 0 
-8.91401 -44.2626 0 
-68.8704 -42.1675 0 
26.1567 -28.4175 0 
-18.8591 -30.1201 0 
-44.2261 -15.4277 0 
-67.4656 -4.57441 0 
-27.1227 -69.2425 0 
-54.4709 -1.15124 0 
-62.4376 -7.11679 0 
-26.3569 -2.58987 0 
-46.2164 -29.9839 0 
-51.765 -14.5096 0 
-17.2014 -47.9939 0 
-30.7646 -46.673 0 
-29.2107 13.969 0 
-16.2021 12.1775 0 
-14.472 -31.7627 0 
-9.35371 12.5275 0 
-14.4905 32.6848 0 
-21.7445 -8.60025 0 
-58.3942 -3.66567 0 
-33.1059 -38.8539 0 
-27.328 -1.74309 0 
-26.0565 -39.0368 0 
-47.1135 -11.4278 0 
14.818 -41.0173 0 
-38.0997 8.2117 0 
-69.1639 -30.5696 0 
-51.0637 -23.1517 0 
-57.2532 -19.663 0 
-44.1692 -35.3203 0 
-58.6603 -14.922 0 
-64.8828 4.82714 0 
-16.57 -69.1119 0 
-35.0278 -40.7265 0 
-14.5482 -9.93675 0 
-14.1912 11.8833 0 
-26.1616 -11.2795 0 
-12.6629 -15.6304 0 
-19.5126 14.4325 0 
-19.992 6.94455 0 
-68.6985 -5.07064 0 
-26.5094 5.53437 0 
-52.573 -35.336 0 
-30.5052 -6.88769 0 
-8.12565 -4.43351 0 
-64.493 11.583 0 
-69.4817 1.68381 0 
-58.3208 5.28883 0 
-49.6701 -4.36093 0 
-22.2522 -9.85935 0 
-29.6908 -12.3821 0 
-69.2724 -9.99076 0 
-42.6608 -39.645 0 
2.56331 -46.0706 0 
-33.382 0.290282 0 
-53.2419 -5.00598 0 
-65.3109 -23.9917 0 
-22.0995 -33.3072 0 
-2.75879 15.773 0 
-69.0712 -4.61858 0 
-43.7066 -57.1837 0 
-35.4952 19.4609 0 
-35.09 -14.6599 0 
-56.8969 -34.7632 0 
-36.4479 -50.3367 0 
-25.4244 10.3073 0 
-58.2137 -14.4853 0 
-4.56702 26.9714 0 
-56.8175 5.54551 0 
-17.1465 13.2309 0 
-49.0806 -22.7619 0 
-44.0442 -5.04237 0 
-68.9489 -36.8053 0 
-21.4752 -34.6402 0 
-55.0391 -14.4659 0 
-41.136 -40.3243 0 
-57.1592 1.62074 0 
-22.9624 -34.5382 0 
-69.7004 -32.1419 0 
-53.9288 -15.0603 0 
-49.3822 -24.624 0 
-69.001 -42.5148 0 
-69.3287 -47.4371 0 
-21.3067 11.9599 0 
-67.663 -34.8624 0 
-64.7884 -47.8956 0 
-18.4178 -3.0196 0 
-9.19768 15.3393 0 
-26.7659 -52.5191 0 
-69.2523 3.76412 0 
-32.6351 -36.1457 0 
-48.1809 11.6939 0 
-60.3597 -37.6565 0 
-66.9093 -21.5544 0 
-59.8944 -40.4124 0 
-50.4837 -22.53 0 
-29.7755 -49.6628 0 
-29.7962 -34.521 0 
-56.9208 -54.9069 0 
-48.1584 -6.02356 0 
-59.609 4.27114 0 
-45.0762 2.4733 0 
-28.0012 -29.8832 0 
-43.5286 -25.813 0 
-24.8276 -69.2186 0 
-47.0304 -25.0894 0 
-59.6132 -35.3175 0 
-34.6333 -50.0445 0 
-51.1645 3.51982 0 
-69.1343 -46.6369 0 
-52.6541 -29.7899 0 
-37.2246 -31.8055 0 
-39.4404 -5.63824 0 
-14.6368 -34.9101 0 
-69.4802 12.6137 0 
-41.2858 -41.6649 0 
-65.8589 -43.4459 0 
-60.8087 3.16576 0 
-22.9446 10.7258 0 
-22.8743 -69.2387 0 
-65.1105 1.01338 0 
-65.6749 -12.8051 0 
-33.1278 9.11951 0 
-31.3379 -38.6149 0 
-8.94275 -4.68019 0 
-18.6588 -34.1044 0 
-25.2466 -56.5212 0 
-55.7991 2.98846 0 
-62.9321 -13.722 0 
-68.345 8.62027 0 
-36.6467 -47.6249 0 
-40.4671 -48.4896 0 
-68.9253 3.83459 0 
-68.9767 -22.8499 0 
-69.3623 -42.889 0 
-63.4759 -34.6107 0 
-32.948 -25.8975 0 
-13.9211 -63.8862 0 
-50.3463 -9.65889 0 
2.20413 8.01291 0 
-19.9189 20.7267 0 
-64.4435 -5.85788 0 
-50.1473 10.5484 0 
-29.8547 -26.4633 0 
-64.0362 -8.93519 0 
-61.8087 -3.17594 0 