<VTKFile type="UnstructuredGrid" version="0.1" byte_order="BigEndian">
  <UnstructuredGrid>
        <Piece NumberOfPoints="8000" NumberOfCells="0" Time= "0.17">      <Points>
        <DataArray name="Position" type="Float32"  NumberOfComponents= "3"  format="ascii">

100.641 19.5745 0 
100.589 19.358 0 
101.172 18.7428 0 
101.597 19.4374 0 
100.496 21.9527 0 
101.868 24.5547 0 
100.919 23.7392 0 
101.426 26.2132 0 
101.99 28.2898 0 
100.713 28.8967 0 
99.8489 31.4253 0 
101.785 31.2484 0 
104.12 5.50102 0 
104.168 8.50156 0 
104.275 8.13196 0 
104.098 8.32587 0 
104.199 8.61272 0 
103.201 7.27262 0 
104.067 9.10128 0 
102.465 10.7676 0 
103.519 10.5952 0 
102.834 10.8238 0 
103.31 11.3325 0 
103.96 9.57838 0 
103.399 9.9909 0 
103.779 10.7056 0 
102.071 10.418 0 
103.269 11.3563 0 
102.837 10.7572 0 
102.571 10.7469 0 
103.828 10.8188 0 
104.097 10.1617 0 
103.123 10.4066 0 
103.593 10.5373 0 
104.064 11.003 0 
103.458 10.7179 0 
103.025 10.5516 0 
104.093 11.2858 0 
104.031 11.0584 0 
103.336 9.8943 0 
103.158 10.7959 0 
103.468 11.6599 0 
102.139 10.6268 0 
102.472 11.6987 0 
102.897 11.2398 0 
104.199 11.2327 0 
103.559 12.4307 0 
103.092 13.0786 0 
103.613 13.0533 0 
104.149 12.8155 0 
103.968 14.8496 0 
103.944 12.6717 0 
104.15 12.5002 0 
103.862 13.4749 0 
102.533 12.822 0 
104.185 16.2494 0 
103.618 15.9862 0 
102.253 20.1063 0 
103.906 17.8489 0 
104.171 19.2219 0 
104.352 18.6149 0 
104.505 19.4424 0 
103.61 19.6771 0 
101.959 21.3136 0 
103.611 20.7209 0 
103.101 21.6804 0 
104.295 20.8836 0 
102.707 20.8574 0 
104.056 22.0091 0 
102.126 22.1692 0 
104.124 23.8305 0 
103.29 24.918 0 
103.131 24.4985 0 
104.314 24.9994 0 
103.235 24.7138 0 
102.842 27.7179 0 
102.623 25.8763 0 
102.632 25.4188 0 
102.228 27.7131 0 
102.889 27.6569 0 
102.635 25.4282 0 
102.949 25.5366 0 
104.483 27.4564 0 
103.67 27.0118 0 
103.861 25.1838 0 
104.03 26.2761 0 
102.245 28.1986 0 
104.401 28.4258 0 
102.271 28.0901 0 
102.59 30.1651 0 
103.072 30.5417 0 
102.819 29.7109 0 
103.392 31.5584 0 
103.341 31.4838 0 
101.982 30.7049 0 
102.595 31.0984 0 
102.695 32.9915 0 
104.097 31.8311 0 
102.139 33.4971 0 
105.119 3.35888 0 
104.442 3.27156 0 
106.748 3.16693 0 
106.805 3.70075 0 
105.633 3.05916 0 
105.009 4.47887 0 
106.608 3.4102 0 
104.952 3.82948 0 
105.061 4.43232 0 
105.786 3.8611 0 
106.105 3.49654 0 
106.451 3.45023 0 
104.822 3.32717 0 
105.619 3.94039 0 
104.485 3.44548 0 
105.455 3.22814 0 
105.61 3.32143 0 
106.866 3.0233 0 
105.302 3.9677 0 
106.856 6.69472 0 
105.202 5.49889 0 
106.683 5.34739 0 
106.469 6.77669 0 
106.989 6.52905 0 
104.732 4.75716 0 
106.382 6.89451 0 
105.606 4.37642 0 
105.283 6.17626 0 
106.764 6.00445 0 
105.208 6.26654 0 
106.311 6.48922 0 
106.364 5.53349 0 
105.811 5.75907 0 
106.109 5.61394 0 
106.323 4.59071 0 
106.94 6.40179 0 
106.093 6.4556 0 
104.682 7.60142 0 
106.831 9.28719 0 
104.43 8.72518 0 
106.475 8.19339 0 
106.892 8.89335 0 
105.755 8.38878 0 
105.963 7.66162 0 
106.237 8.89545 0 
104.68 8.15754 0 
105.308 7.98401 0 
106.7 9.18764 0 
106.733 9.71788 0 
106.683 9.46384 0 
105.641 8.2431 0 
105.546 7.85036 0 
106.299 9.65055 0 
104.399 7.82681 0 
105.933 7.92441 0 
106.768 8.31717 0 
106.638 7.0539 0 
106.744 8.69557 0 
106.644 7.51625 0 
106.204 7.16747 0 
106.774 8.69808 0 
106.98 7.30592 0 
106.869 7.40296 0 
104.925 7.31719 0 
104.688 8.82602 0 
105.572 9.063 0 
105.418 9.91736 0 
106.758 11.0745 0 
105.567 10.242 0 
105.441 9.94401 0 
106.013 11.1837 0 
106.87 11.9163 0 
106.091 10.8156 0 
105.133 9.78571 0 
105.014 9.55796 0 
105.598 12.0229 0 
104.586 10.001 0 
105.159 9.67933 0 
104.702 12.0894 0 
106.16 11.8036 0 
106.868 11.8675 0 
104.64 11.6043 0 
106.426 11.6274 0 
106.048 11.2647 0 
105.838 12.1674 0 
106.626 10.1737 0 
105.066 11.9311 0 
105.233 9.54324 0 
105.519 10.3808 0 
106.247 10.7241 0 
106.758 11.6311 0 
105.938 11.4425 0 
105.3 10.5835 0 
106.847 11.9553 0 
105.822 10.5328 0 
104.487 10.8846 0 
106.346 10.4457 0 
105.95 14.301 0 
106.492 14.0845 0 
106.477 12.6354 0 
105.884 13.6722 0 
106.409 13.0392 0 
106.642 12.4876 0 
106.236 14.4269 0 
105.548 12.9969 0 
106.895 12.9674 0 
104.992 14.5498 0 
106.444 14.7733 0 
105.915 14.0438 0 
106.709 14.4793 0 
106.894 12.4342 0 
104.58 12.3738 0 
106.329 12.2647 0 
106.712 14.1206 0 
104.8 13.7496 0 
106.783 13.1229 0 
105.574 13.0588 0 
106.476 12.8953 0 
106.499 12.8547 0 
105.305 13.9302 0 
106.715 12.9885 0 
104.548 12.832 0 
106.643 12.7463 0 
106.462 12.8523 0 
106.609 13.895 0 
106.867 12.6646 0 
105.741 12.873 0 
104.583 12.7387 0 
105.069 14.4727 0 
104.693 14.2507 0 
105.621 13.1698 0 
106.379 13.7984 0 
106.435 12.8529 0 
106.854 12.9956 0 
106.549 13.2618 0 
105.251 14.131 0 
106.829 12.457 0 
105.237 13.362 0 
106.237 13.8073 0 
104.927 12.3028 0 
106.532 13.0649 0 
105.329 13.0461 0 
104.735 12.2845 0 
105.807 13.6351 0 
106.3 12.4651 0 
105.027 14.3788 0 
104.887 13.6873 0 
105.446 13.1979 0 
106.058 12.5777 0 
106.701 16.6589 0 
105.713 15.0673 0 
107.026 17.442 0 
106.775 16.4697 0 
106.738 16.3917 0 
105.237 16.5452 0 
106.521 15.9715 0 
106.903 15.7699 0 
104.856 16.1978 0 
106.044 17.1452 0 
107.036 16.8819 0 
105.172 16.1566 0 
106.474 15.8867 0 
106.728 16.3701 0 
105.416 15.9449 0 
106.865 16.3106 0 
106.844 16.6137 0 
105.237 17.1419 0 
106.334 17.0379 0 
106.454 16.8577 0 
106.722 16.5563 0 
106.662 15.2454 0 
105.089 16.8073 0 
105.167 15.9403 0 
106.103 16.1852 0 
104.552 17.02 0 
105.749 18.0183 0 
104.596 17.8951 0 
106.105 19.9287 0 
105.256 18.9687 0 
104.971 19.16 0 
104.98 19.615 0 
104.918 19.3238 0 
104.246 17.9614 0 
105.193 18.8153 0 
105.903 19.071 0 
105.289 18.7443 0 
106.852 17.6098 0 
105.216 18.162 0 
106.447 19.0636 0 
106.691 21.1942 0 
104.615 20.5953 0 
105.501 22.2426 0 
106.704 22.378 0 
105.715 21.1335 0 
105.743 21.7114 0 
106.171 21.2253 0 
106.529 20.7495 0 
105.389 24.3404 0 
104.952 24.9012 0 
105.325 24.8265 0 
106.609 24.9645 0 
105.939 24.4681 0 
104.713 23.2971 0 
105.995 23.4819 0 
105.012 23.288 0 
105.588 26.7041 0 
105.8 27.1819 0 
105.745 25.2988 0 
106.026 29.8546 0 
105.797 29.3311 0 
106.006 29.431 0 
106.461 30.4528 0 
106.235 28.7978 0 
106.975 30.456 0 
106.47 30.5114 0 
105.522 29.8302 0 
105.173 29.0805 0 
106.787 28.2658 0 
104.921 29.3366 0 
106.837 28.9191 0 
106.247 28.8422 0 
106.305 31.8035 0 
105.981 30.98 0 
106.506 31.0387 0 
106.694 30.7751 0 
105.976 31.0677 0 
106.87 30.8218 0 
105.056 31.7019 0 
106.9 30.7747 0 
106.636 33.8177 0 
109.291 1.53876 0 
108.392 3.71021 0 
107.812 3.40017 0 
107.136 3.84448 0 
107.737 3.30301 0 
108.222 3.44876 0 
108.907 3.23671 0 
107.382 2.3805 0 
107.311 4.1429 0 
107.559 6.46165 0 
109.179 4.46486 0 
107.576 6.42166 0 
107.311 6.03159 0 
108.082 6.57124 0 
107.715 5.75988 0 
107.878 5.37172 0 
109.265 6.64356 0 
109.248 5.53541 0 
108.868 5.52679 0 
108.114 4.91066 0 
108.834 6.75172 0 
107.364 6.3448 0 
108.637 6.58318 0 
107.723 4.89512 0 
108.482 5.01807 0 
109.631 7.10748 0 
108.14 7.88649 0 
108.844 8.36666 0 
108.273 8.16676 0 
109.207 8.78316 0 
107 7.39281 0 
108.595 8.44043 0 
108.55 7.47417 0 
107.963 8.2424 0 
107.08 8.2409 0 
108.295 7.5469 0 
107.951 7.97487 0 
107.111 8.38953 0 
107.205 8.25064 0 
108.171 7.38306 0 
108.374 8.60556 0 
108.601 8.39994 0 
108.101 7.74221 0 
108.243 9.02429 0 
109.294 9.03745 0 
107.303 7.83675 0 
107.963 8.1505 0 
107.463 7.79359 0 
109.276 8.80118 0 
108.827 9.04693 0 
107.339 8.96914 0 
108.065 9.36879 0 
108.544 8.33956 0 
107.087 9.35915 0 
109.31 8.54576 0 
107.856 8.30596 0 
108.042 7.72737 0 
108.611 7.93906 0 
109.121 7.35282 0 
107.273 8.35851 0 
107.909 8.3191 0 
108.149 7.87202 0 
108.195 7.93827 0 
109.107 7.59947 0 
108.062 7.7809 0 
107.823 8.21849 0 
107.795 8.0125 0 
107.612 8.583 0 
108.366 8.0391 0 
109.206 9.35637 0 
107.315 8.90434 0 
108.054 7.96256 0 
108 8.27747 0 
109.341 7.5677 0 
108.679 8.87344 0 
109.274 8.52248 0 
107.903 8.20443 0 
108.174 8.32897 0 
109.263 8.54378 0 
108.24 8.46443 0 
108.546 7.51209 0 
109.499 8.62785 0 
107.399 8.39224 0 
107.485 9.11598 0 
107.765 8.41267 0 
108.578 8.35337 0 
109.236 8.27501 0 
107.037 9.22768 0 
108.378 8.2671 0 
108.996 9.23826 0 
107.651 8.44333 0 
107.972 8.03141 0 
107.761 8.82009 0 
108.421 8.10985 0 
108.38 7.81935 0 
107.546 8.1976 0 
107.345 8.17856 0 
109.206 8.77887 0 
107.015 8.75218 0 
108.944 9.17197 0 
107.69 7.62657 0 
108.082 8.68463 0 
108.038 8.08939 0 
108.411 9.17492 0 
109.197 8.89033 0 
108.979 8.79722 0 
109.456 8.34369 0 
107.783 8.40531 0 
107.311 8.50512 0 
109.172 8.46289 0 
107.374 7.35463 0 
108.795 7.84231 0 
108.298 8.01831 0 
108.136 7.38353 0 
109.608 7.24104 0 
107.284 8.04691 0 
109.447 7.34119 0 
109.101 8.13755 0 
107.53 7.73239 0 
107.932 8.85319 0 
107.027 10.9872 0 
109.143 11.7495 0 
108.04 10.8559 0 
107.948 12.0395 0 
107.79 11.8708 0 
106.961 9.88301 0 
107.827 11.029 0 
107.667 11.2607 0 
107.957 9.94144 0 
107.606 11.2503 0 
107.507 11.8417 0 
107.308 10.4322 0 
107.326 11.1406 0 
107.94 9.82726 0 
107.292 10.94 0 
108.741 11.4632 0 
107.249 11.7196 0 
107.96 9.80779 0 
109.03 11.8513 0 
108.772 11.4099 0 
109.01 11.6332 0 
109.224 11.3416 0 
106.962 11.6168 0 
108.992 11.4895 0 
108.205 11.4632 0 
108.273 10.0839 0 
109.429 10.8371 0 
107.948 10.4924 0 
108.293 10.8473 0 
107.802 9.90221 0 
108.192 10.6285 0 
107.587 12.1564 0 
108.09 11.6523 0 
109.28 11.0103 0 
106.927 10.2918 0 
107.548 11.2188 0 
107.35 11.4516 0 
109.066 10.0066 0 
108.971 11.5049 0 
108.802 10.7023 0 
109 13.6373 0 
109.48 13.5656 0 
107.975 12.4105 0 
108.504 14.1325 0 
108.709 12.9383 0 
108.247 12.5693 0 
107.552 13.1877 0 
107.438 14.7185 0 
107.759 12.2534 0 
109.292 13.1949 0 
108.487 13.6819 0 
107.073 13.3119 0 
108.796 13.6809 0 
108.538 13.5526 0 
108.009 13.7755 0 
108.661 14.3993 0 
109.261 13.2999 0 
107.455 12.9362 0 
109.154 13.4927 0 
109.344 13.1753 0 
108.951 13.0379 0 
109.087 13.2018 0 
107.785 13.6567 0 
108.998 12.9135 0 
108.18 13.9056 0 
108.991 13.5599 0 
109.056 14.2576 0 
108.475 13.4861 0 
108.835 12.9896 0 
[...]
      <PointData Vectors="vector">
        <DataArray type="Float32" Name="Velocity" NumberOfComponents="3" format="ascii">

-123.66 119.529 0 
-165.708 -90.894 0 
-167.229 -92.7149 0 
-166.635 -79.2847 0 
-155.397 -44.8984 0 
-154.174 -6.83269 0 
-158.511 -18.0534 0 
-137.441 1.54358 0 
-137.386 -11.3473 0 
-127.362 31.7391 0 
-107.867 22.5772 0 
-118.636 25.3816 0 
-131.986 57.489 0 
-101.308 56.2861 0 
-152.121 15.138 0 
-110.088 65.0418 0 
-121.865 98.6325 0 
-98.274 78.8248 0 
-157.172 65.8597 0 
-121.008 89.1381 0 
-124.906 91.8972 0 
-124.032 105.459 0 
-126.82 105.166 0 
-111.166 101.118 0 
-132.783 -131.304 0 
-111.383 -126.856 0 
-133.164 -87.5435 0 
-131.959 -129.692 0 
-130.879 -115.167 0 
-153.069 -100.388 0 
-138.206 -59.5996 0 
-92.3898 -72.987 0 
-147.713 -93.4138 0 
-139.021 -95.7508 0 
-131.703 -86.5687 0 
-140.061 -96.8598 0 
-152.188 -88.6566 0 
-146.909 -99.2377 0 
-148.451 -99.4966 0 
-150.083 -88.6896 0 
-133.195 -94.3722 0 
-143.999 -104.951 0 
-140.497 -60.278 0 
-152.107 -60.0895 0 
-120.995 -71.7659 0 
-159.417 -82.9596 0 
-135.856 -71.1041 0 
-158.971 -76.6204 0 
-151.675 -54.8894 0 
-146.176 -86.9016 0 
-143.421 -49.5313 0 
-105.547 -76.3425 0 
-119.026 -45.5513 0 
-153.246 -52.9784 0 
-158.846 -82.537 0 
-160.869 -88.2876 0 
-139.33 -92.2456 0 
-139.649 -93.3189 0 
-137.75 -99.2162 0 
-157.458 -77.6 0 
-140.641 -69.172 0 
-160.007 -78.5953 0 
-128.917 -52.3203 0 
-136.716 -92.3955 0 
-130.932 -49.9741 0 
-138.883 -68.4507 0 
-99.871 -69.2053 0 
-102.198 -38.0548 0 
-147.711 -52.5901 0 
-120.742 -60.7519 0 
-128.983 -60.5046 0 
-154.966 -93.7535 0 
-146.863 -77.5465 0 
-115.634 8.58766 0 
-109.189 -37.3597 0 
-127.939 -32.7453 0 
-118.677 -30.5883 0 
-141.1 -75.8256 0 
-121.86 -55.955 0 
-128.476 -42.9749 0 
-119.018 -39.7147 0 
-122.219 -25.5862 0 
-129.723 -17.5805 0 
-109.774 -48.3287 0 
-125.989 -43.549 0 
-138.274 -48.4835 0 
-132.829 -40.8141 0 
-137.323 -8.78888 0 
-143.186 8.6334 0 
-119.262 -12.7097 0 
-117.027 -0.0920646 0 
-91.1149 -7.09522 0 
-132.146 26.7477 0 
-141.708 9.89057 0 
-121.806 -3.39882 0 
-142.151 12.5532 0 
-156.081 -3.06066 0 
-133.781 -10.5723 0 
-120.982 -7.91529 0 
-92.5999 4.8906 0 
-101.132 24.4056 0 
-144.494 8.10992 0 
-130.613 35.0305 0 
-118.367 4.11675 0 
-124.294 16.778 0 
-76.9364 -1.55391 0 
-122.023 41.639 0 
-72.6834 37.6527 0 
-130.034 30.626 0 
-156.028 7.29006 0 
-113.525 38.1455 0 
-114.841 31.1004 0 
-114.388 37.2365 0 
-90.9754 63.3846 0 
-129.343 65.5306 0 
-153.656 29.9163 0 
-153.545 30.3286 0 
-159.293 57.0057 0 
-87.1022 61.7936 0 
-90.7594 67.7763 0 
-122.04 32.5679 0 
-99.6617 80.3564 0 
-71.5605 72.2594 0 
-84.9883 97.6279 0 
-121.418 82.2166 0 
-95.6961 116.999 0 
-87.4256 102.29 0 
-97.9078 108.853 0 
-97.4698 90.97 0 
-99.6683 -149.185 0 
-125.141 -127.614 0 
-99.4433 -121.443 0 
-100.733 -127.027 0 
-99.8064 -138.683 0 
-123.542 -98.0149 0 
-104.559 -126.363 0 
-119.376 -97.9115 0 
-111.456 -97.9597 0 
-116.709 -113.46 0 
-87.7212 -126.657 0 
-136.667 -143.665 0 
-103.127 -134.651 0 
-140.288 -146.386 0 
-95.9302 -134.458 0 
-94.1978 -127.356 0 
-86.7398 -119.387 0 
-116.729 -121.792 0 
-69.8907 -110.059 0 
-112.962 -147.64 0 
-123.112 -113.586 0 
-107.414 -115.596 0 
-93.6504 -110.866 0 
-119.926 -98.1545 0 
-120.506 -132.361 0 
-115.093 -130.446 0 
-92.9756 -115.093 0 
-103.423 -100.73 0 
-125.301 -97.619 0 
-114.229 -119.281 0 
-126.324 -87.9261 0 
-96.2118 -80.308 0 
-115.812 -121.057 0 
-57.8889 -75.1833 0 
-133.408 -110.412 0 
-129.573 -91.3335 0 
-106.243 -94.4779 0 
-111.941 -107.421 0 
-112.884 -94.006 0 
-85.7482 -99.8188 0 
-122.365 -113.945 0 
-108.186 -94.6787 0 
-115.274 -96.0086 0 
-102.785 -71.0733 0 
-132.43 -74.1488 0 
-95.553 -76.9009 0 
-140.29 -79.0673 0 
-116.544 -99.762 0 
-142.89 -95.7769 0 
-117.322 -107.21 0 
-71.1558 -59.5352 0 
-114.598 -59.2749 0 
-107.824 -108.561 0 
-130.135 -95.755 0 
-106.928 -86.5622 0 
-113.044 -70.4164 0 
-126.628 -93.1579 0 
-141.587 -59.1632 0 
-109.476 -71.8539 0 
-123.219 -67.9979 0 
-127.735 -66.2754 0 
-131.303 -65.0173 0 
-86.4146 -71.9352 0 
-132.525 -80.9503 0 
-108.787 -93.0714 0 
-103.554 -70.3744 0 
-98.3483 -55.4502 0 
-128.791 -73.1823 0 
-110.686 -57.3268 0 
-103.024 -68.2235 0 
-96.8658 -91.8624 0 
-126.104 -99.0936 0 
-131.877 -59.1943 0 
-120.202 -102.012 0 
-118.374 -58.1945 0 
-129.322 -65.0126 0 
-123.489 -75.6177 0 
-131.253 -46.4485 0 
-140.651 -57.2992 0 
-78.1875 -64.6701 0 
-118.155 -96.1217 0 
-134.147 -109.971 0 
-143.913 -74.571 0 
-128.913 -89.8757 0 
-113.978 -73.946 0 
-112.447 -60.82 0 
-140.967 -35.0012 0 
-124.894 -59.9884 0 
-129.94 -51.3126 0 
-115.48 -40.7327 0 
-124.337 -58.866 0 
-110.951 -72.6411 0 
-89.6073 -48.0147 0 
-92.9036 -78.4224 0 
-110.155 -70.3396 0 
-111.759 -75.7062 0 
-82.0236 -63.5243 0 
-97.7614 -76.8974 0 
-95.8962 -62.6218 0 
-117.995 -71.0093 0 
-100.682 -54.8374 0 
-115.981 -76.3123 0 
-96.8525 -51.7846 0 
-100.333 -41.1183 0 
-107.095 -67.883 0 
-137.796 -78.729 0 
-96.2737 -113.704 0 
-103.141 -71.713 0 
-115.491 -78.0162 0 
-116.694 -57.8862 0 
-115.418 -39.3965 0 
-102.128 -59.0937 0 
-126.175 -38.0855 0 
-111.055 -87.0698 0 
-99.8089 -77.6503 0 
-101.578 -100.047 0 
-123.987 -55.4632 0 
-82.6368 -58.133 0 
-121.12 -28.2435 0 
-115.921 -93.6064 0 
-88.2104 -42.465 0 
-113.288 -48.6481 0 
-101.929 -41.6824 0 
-83.9406 -37.6584 0 
-81.7619 -18.6763 0 
-105.699 -40.6831 0 
-101.122 -45.4837 0 
-109.234 -40.2133 0 
-120.496 -34.9543 0 
-111.794 -41.6576 0 
-110.451 -39.3049 0 
-98.3504 -10.1376 0 
-72.9095 -53.9454 0 
-97.3759 -27.9896 0 
-101.709 -41.2441 0 
-96.5135 -50.3852 0 
-81.8447 -34.486 0 
-102.135 -40.1722 0 
-119.545 -36.719 0 
-123.516 -39.9661 0 
-118.042 -48.8751 0 
-75.7726 -53.7988 0 
-99.6435 -49.4975 0 
-128.487 -42.7001 0 
-113.47 -37.2751 0 
-104.346 -15.2776 0 
-102.968 -7.34611 0 
-87.3333 -34.747 0 
-97.0135 -70.7728 0 
-110.147 -39.4326 0 
-107.163 -46.9496 0 
-113.779 5.49855 0 
-111.42 -16.5742 0 
-85.0971 -38.3737 0 
-103.243 -6.63955 0 
-102.426 -57.2986 0 
-113.024 -44.4092 0 
-129.833 -69.0174 0 
-114.952 -49.0019 0 
-76.07 -43.5913 0 
-130.191 -25.176 0 
-84.2379 -45.0372 0 
-126.349 -25.1074 0 
-89.233 -50.0313 0 
-127.203 -40.3596 0 
-87.6017 -35.5118 0 
-113.162 -51.1994 0 
-98.4521 -38.1011 0 
-138.316 -23.311 0 
-87.2401 -32.9602 0 
-117.61 -34.7784 0 
-85.9928 -20.2564 0 
-111.174 -9.4337 0 
-96.9124 10.4856 0 
-87.2401 -1.60962 0 
-123.651 -25.903 0 
-129.877 -55.0413 0 
-125.236 12.8403 0 
-112.853 -30.1003 0 
-117.593 -32.9449 0 
-131.457 8.91738 0 
-145.14 -44.423 0 
-123.312 -35.4442 0 
-117.459 -11.9601 0 
-92.5596 1.82125 0 
-127.589 -24.3817 0 
-125.886 17.857 0 
-89.2192 -18.8861 0 
-138.776 -26.7657 0 
-137.142 -56.8853 0 
-126.534 -24.0631 0 
-130.872 -24.4154 0 
-113.267 -13.4622 0 
-110.239 -11.0413 0 
-107.635 3.46833 0 
-117.144 -18.7709 0 
-104.365 -21.783 0 
-106.505 6.09273 0 
-117.518 -35.352 0 
-108.448 7.57435 0 
-126.232 4.17339 0 
-116.706 -43.3038 0 
-74.5243 0.545077 0 
-93.3164 2.07005 0 
-121.513 -51.3528 0 
-111.959 -2.72284 0 
-120.827 -58.8587 0 
-133.315 -2.56765 0 
-106.754 -0.604268 0 
-109.291 -10.6789 0 
-104.554 -60.0365 0 
-116.854 27.5584 0 
-104.584 -8.18521 0 
-120.586 13.4343 0 
-130.705 -40.4414 0 
-122.021 -15.4344 0 
-130.357 -2.79219 0 
-138.308 44.0781 0 
-126.838 -23.9489 0 
-136.393 -45.9342 0 
-116.355 -2.63991 0 
-129.15 -14.7723 0 
-112.889 -50.5537 0 
-101.849 -52.7618 0 
-88.6871 -24.2453 0 
-116.495 -6.49646 0 
-136.007 48.832 0 
-102.347 -6.78346 0 
-62.8758 32.3376 0 
-107.845 39.3416 0 
-127.698 41.6123 0 
-112.018 16.0125 0 
-89.0678 35.2408 0 
-78.1285 12.6992 0 
-139.059 44.3707 0 
-96.6289 53.2517 0 
-113.229 54.699 0 
-133.618 44.936 0 
-96.606 52.0678 0 
-135.56 71.6881 0 
-113.718 25.3961 0 
-138.151 13.6376 0 
-137.166 52.0512 0 
-83.1325 85.9551 0 
-79.2485 9.2854 0 
-123.78 62.9574 0 
-94.8052 6.64341 0 
-84.5905 51.3983 0 
-113.978 67.1036 0 
-128.559 63.6136 0 
-96.7178 62.4048 0 
-120.5 54.5336 0 
-98.1915 19.0495 0 
-124.777 68.1656 0 
-120.774 69.9816 0 
-98.9306 58.2708 0 
-98.7293 47.5268 0 
-109.1 34.7152 0 
-81.7365 89.5037 0 
-140.67 72.4986 0 
-75.9863 53.6404 0 
-103.563 76.8349 0 
-105.977 101.14 0 
-96.4984 65.6055 0 
-115.955 59.4595 0 
-97.4907 84.8609 0 
-110.165 65.8498 0 
-113.915 55.194 0 
-88.6254 65.9504 0 
-96.4354 66.5375 0 
-113.644 111.125 0 
-96.969 103.612 0 
-96.3504 119.033 0 
-105.787 123.699 0 
-101.351 113.759 0 
-96.0536 114.272 0 
-104.311 121.8 0 
-102.738 112.291 0 
-77.4161 102.386 0 
-69.1977 113.948 0 
-78.545 -167.066 0 
-42.457 -125.663 0 
-83.2679 -135.187 0 
-83.5755 -121.759 0 
-92.7301 -135.077 0 
-67.4199 -89.35 0 
-85.3191 -115.512 0 
-74.388 -115.322 0 
-98.6234 -91.134 0 
-144.396 -88.0925 0 
-72.7601 -114.94 0 
-100.906 -152.092 0 
-60.6358 -109.462 0 
-54.097 -127.689 0 
-104.541 -117.867 0 
-71.8248 -101.299 0 
-117.686 -81.8416 0 
-105.557 -101.712 0 
-118.094 -84.8546 0 
-119.267 -90.824 0 
-98.2582 -119.992 0 
-112.426 -127.68 0 
-76.5443 -69.9415 0 
-131.045 -138.001 0 
-84.7452 -77.2536 0 
-92.1944 -105.922 0 
-90.4142 -99.0702 0 
-72.4554 -109.705 0 
-92.8883 -101.065 0 
-113.83 -118.169 0 
-109.859 -92.8802 0 
-95.2422 -94.4739 0 
-107.087 -99.0359 0 
-99.9727 -113.133 0 
-114.521 -129.362 0 
-105.878 -89.7497 0 
-89.8555 -91.5053 0 
-73.7104 -109.563 0 
-75.2153 -106.21 0 
-112.849 -127.125 0 
-85.6102 -63.8845 0 
-83.9255 -115.576 0 
-119.402 -77.4134 0 
-97.1213 -73.6111 0 
-72.8149 -93.7773 0 
-78.0274 -112.278 0 
-109.499 -79.5556 0 
-107.488 -128.146 0 
-142.283 -83.4139 0 
-99.8072 -106.051 0 
-105.596 -92.3147 0 
-114.274 -101.716 0 
-99.511 -78.4188 0 
-65.7073 -98.4554 0 
-67.8262 -88.9084 0 
-124.336 -76.739 0 
-108.755 -75.6945 0 
-102.389 -112.575 0 
-98.664 -126.195 0 
-74.9348 -93.4701 0 
-96.8344 -66.2276 0 
-123.061 -71.9301 0 
-112.788 -60.2277 0 
-92.3678 -70.0481 0 
-79.8934 -97.8777 0 
-106.813 -98.117 0 
-68.9817 -97.3328 0 
-109.441 -75.7664 0 
-118.146 -70.4189 0 
-111.451 -100.604 0 
-100.325 -102.191 0 
-108.458 -106.974 0 
-104.851 -67.9579 0 
-90.2525 -65.3797 0 
-91.72 -95.6927 0 
-91.8865 -100.014 0 
-106.587 -110.335 0 
-107.728 -88.4764 0 
-121.531 -70.3182 0 
-76.1899 -73.0382 0 
-85.6737 -118.911 0 
-124.073 -78.6221 0 
-119.425 -86.6088 0 
-103.596 -103.043 0 
-86.3962 -64.212 0 
-100.5 -70.5166 0 
-115.077 -69.9492 0 
-120.557 -58.9268 0 
-83.4331 -90.2361 0 
-85.7437 -82.3776 0 
-66.4245 -96.993 0 
-102.546 -72.012 0 
-73.1408 -73.246 0 
-87.0271 -124.154 0 
-86.8399 -81.8922 0 
-72.7208 -107.795 0 
-92.4732 -118.894 0 
-111.482 -111.146 0 
-122.973 -79.018 0 
-70.892 -108.52 0 
-120.815 -71.1435 0 
-79.453 -98.6884 0 
-83.9035 -70.1972 0 
-103.858 -81.0626 0 
-130.172 -85.3154 0 
-113.604 -103.552 0 
-111.003 -68.3323 0 
-119.773 -87.6064 0 
-85.3342 -76.5582 0 
-140.403 -92.9542 0 
-100.594 -80.6024 0 
-83.5541 -51.3372 0 
-130.418 -112.085 0 
-109.358 -82.4784 0 
-72.8713 -93.8758 0 
-84.256 -75.1976 0 
-103.169 -82.4467 0 
-117.529 -96.6576 0 
-78.1877 -107.459 0 
-92.4082 -69.5786 0 
-67.1201 -86.7194 0 
-92.405 -80.4225 0 
-89.8357 -76.8822 0 
-79.7564 -81.9578 0 
-115.066 -63.2501 0 
-68.9676 -71.9055 0 
-103.476 -79.1401 0 
-86.0412 -61.0993 0 
-101.336 -89.4299 0 
-78.6288 -88.4423 0 
-87.1941 -86.7767 0 
-90.1542 -51.182 0 
-137.32 -123.872 0 
-107.837 -83.0074 0 
-106.467 -103.329 0 
-105.714 -60.8427 0 
-77.6887 -70.914 0 
-88.4208 -55.0843 0 
-113.797 -65.3374 0 
-101.879 -62.2945 0 
-145.698 -67.3471 0 
-94.0504 -47.5392 0 
-52.1046 -85.7308 0 
-92.3043 -86.8815 0 
-134.109 -49.111 0 
-90.1675 -61.0392 0 
-99.6161 -57.9923 0 
-72.9972 -81.242 0 
-63.1858 -60.2508 0 
-69.7934 -50.2066 0 
-128.889 -81.6918 0 
-88.6922 -54.7704 0 
-87.4642 -67.8644 0 
-77.4339 -83.0049 0 
-91.0889 -50.4096 0 
-124.535 -42.7307 0 
-126.227 -56.9553 0 
-119.094 -33.3729 0 
-100.196 -49.6369 0 
-117.044 -62.3297 0 
-98.1866 -35.7738 0 
-84.4085 -59.7878 0 
-109.505 -44.0063 0 
-99.248 -34.8822 0 
-91.1228 -67.381 0 
-88.8967 -51.8286 0 
-91.163 -72.6057 0 
-68.2269 -58.0482 0 
-127.307 -40.4521 0 
-115.85 -68.1393 0 
-108.489 -91.2873 0 
-112.897 -52.8549 0 
-146.841 -86.3808 0 
-85.9337 -55.706 0 
-124.322 -55.0725 0 
-95.1082 -86.8514 0 
-119.164 -56.8192 0 
-94.2008 -63.8924 0 
-96.1589 -81.6025 0 
-88.7847 -58.8905 0 
-122.088 -62.9933 0 
-64.2995 -91.3221 0 
-79.6108 -63.6764 0 
-100.47 -78.9361 0 
-108.05 -87.7119 0 
-74.8267 -55.1836 0 
-99.437 -61.5056 0 
-84.1833 -53.2856 0 
-141.176 -43.1249 0 
-76.0752 -53.0813 0 
-109.163 -53.2945 0 
-133.731 -25.4314 0 
-128.157 -59.1047 0 
-66.164 -77.3159 0 
-77.7594 -66.5039 0 
-73.4372 -59.7323 0 
-119.45 -59.3564 0 
-72.8816 -64.4366 0 
-75.5269 -49.0991 0 
-62.6646 -77.7124 0 
-102.177 -66.9138 0 
-50.4751 -74.6146 0 
-127.359 -29.3427 0 
-88.1253 -74.3096 0 
-113.26 -71.556 0 
-82.5676 -67.7839 0 
-124.388 -34.4424 0 
-120.873 -50.2811 0 
-72.94 -44.519 0 
-110.476 -40.4336 0 
-88.1433 -67.9796 0 
-60.1902 -64.6453 0 
-66.1322 -56.8393 0 
-90.9736 -44.9485 0 
-75.1302 -61.953 0 
-87.8544 -32.1045 0 
-112.985 -43.9383 0 
-80.2946 -64.338 0 
-105.347 -65.2884 0 
-64.9455 -54.2843 0 
-71.8565 -38.828 0 
-94.8608 -50.2533 0 
-133.135 -45.7417 0 
-124.464 -58.9746 0 
-85.2467 -49.9381 0 
-107.644 -43.4339 0 
-88.3289 -58.9471 0 
-80.9673 -57.5184 0 
-84.7327 -37.9835 0 
-113.901 -75.64 0 
-117.75 -42.056 0 
-89.5897 -50.8987 0 
-59.1098 -57.4253 0 
-67.7446 -55.6096 0 
-90.3518 -61.293 0 
-84.2955 -73.7093 0 
-99.9324 -38.5379 0 
-109.367 -43.5664 0 
-65.1697 -69.4957 0 
-72.3304 -58.1484 0 
-77.6221 -53.433 0 
-61.9407 -59.6341 0 
-66.5603 -59.4668 0 
-96.24 -73.8716 0 
-129.156 -61.1219 0 
-78.0861 -50.7901 0 
-81.65 -53.7131 0 
-106.231 -43.7946 0 
-81.5309 -30.6055 0 
-82.3802 -43.6981 0 
-79.7503 -77.3488 0 
-91.3345 -48.4266 0 
-91.8961 -53.6952 0 
-87.7999 -74.5866 0 
-125.019 -61.1915 0 
-77.141 -60.0054 0 
-110.706 -64.5867 0 
-59.9262 -53.9122 0 
-87.1634 -48.2018 0 
-72.4995 -59.6178 0 
-115.624 -26.6583 0 
-107.334 -46.2825 0 
-80.7075 -57.5926 0 
-57.9263 -70.6882 0 
-72.5797 -62.8248 0 
-67.0875 -33.9748 0 
-115.703 -22.4182 0 
-76.1474 -25.7751 0 
-107.745 -37.7243 0 
-119.222 -65.2658 0 
-127.98 -59.5066 0 
-75.532 -62.3635 0 
-58.6958 -68.0923 0 
-106.567 -51.1231 0 
-104.292 -13.3086 0 
-91.7119 -36.8626 0 
-62.9407 -68.4346 0 
-128.982 -49.9941 0 
-100.759 -47.9375 0 
-68.1804 -72.0317 0 
-105.422 -38.9325 0 
-85.829 -52.7608 0 
-74.6652 -75.1193 0 
-105.014 -22.0199 0 
-151.147 -39.7848 0 
-143.479 -32.0742 0 
-93.3381 -29.3252 0 
-114.365 -16.1691 0 
-130.395 -40.5392 0 
-66.0534 4.93855 0 
-97.0418 42.7851 0 
-60.1218 -17.8726 0 
-92.5986 4.11971 0 
-111.952 17.8498 0 
-99.8488 15.7218 0 
-85.6578 13.1217 0 
-99.4746 -46.7591 0 
-61.7369 -23.6146 0 
-126.868 -35.7668 0 
-92.8369 -18.0791 0 
-84.7225 -29.6348 0 
-117.709 28.5042 0 
-63.3765 15.3468 0 
-85.7034 -11.6924 0 
-97.6375 5.5229 0 
-74.6617 -11.5403 0 
-104.857 -11.7983 0 
-93.149 37.6862 0 
-94.1091 4.79454 0 
-110.976 0.581183 0 
-78.0459 15.6064 0 
-68.4122 19.0833 0 
-108.06 -14.8004 0 
-81.4537 -6.77628 0 
-74.3174 -2.41013 0 
-89.3117 -25.3631 0 
-104.436 -25.8612 0 
-56.3569 -41.6752 0 
-105.826 7.97969 0 
-106.513 -26.9909 0 
-93.2342 -15.1379 0 
-86.6987 -10.046 0 
-98.0231 0.547084 0 
-53.5748 6.59934 0 
-109.413 -58.5673 0 
-101.2 -31.3133 0 
-91.6167 -10.3272 0 
-111.796 -46.3947 0 
-127.765 -4.74016 0 
-112.346 18.4631 0 
-61.7845 -6.86556 0 
-113.575 6.22607 0 
-98.2221 21.8844 0 
-97.5332 28.7437 0 
-103.669 25.4871 0 
-121.881 -5.44292 0 
-96.3891 -42.6475 0 
-116.056 5.41067 0 
-98.5203 -26.4029 0 
-81.477 20.103 0 
-102.199 -15.4254 0 
-58.1339 -3.62636 0 
-75.9846 -33.516 0 
-89.7117 -55.3441 0 
-100.711 -27.0404 0 
-62.1387 -8.02963 0 
-108.194 16.3315 0 
-86.0652 0.0615665 0 
-93.4343 -49.3504 0 
-107.976 3.55282 0 
-98.3921 -9.84176 0 
-99.292 20.5972 0 
-78.1311 -14.7113 0 
-96.477 -21.9724 0 
-64.9081 2.09922 0 
-109.389 10.0677 0 
-99.6353 27.1301 0 
-77.361 -32.4261 0 
-60.6724 -5.68968 0 
-68.9859 11.0555 0 
-108.887 -54.3357 0 
-134.402 -26.9 0 
-137.383 -16.5401 0 
-95.4685 29.8909 0 
-77.3489 3.06237 0 
-75.3156 5.92071 0 
-59.9424 -0.453209 0 
-87.9664 4.82396 0 
-80.9057 -31.9083 0 
-86.3064 -34.3129 0 
-81.8749 -10.0653 0 
-103.283 -14.701 0 
-102.092 -20.4604 0 
-91.0749 31.1786 0 
-86.8611 6.78313 0 
-98.9907 13.7869 0 
-106.917 20.8895 0 
-92.8822 33.9097 0 
-92.8101 -13.7029 0 
-97.9848 -50.9999 0 
-78.0933 22.5516 0 
-96.2419 -23.29 0 
-60.3417 -34.4814 0 
-55.5504 -19.0339 0 
-143.765 -11.012 0 
-65.768 -13.746 0 
-78.3597 16.137 0 
-92.5455 -24.1961 0 
-61.6488 -6.29261 0 
-79.9131 -1.54314 0 
-100.228 -3.58329 0 
-84.3289 -8.35619 0 
-83.6756 23.8323 0 
-98.7707 -68.1448 0 
-55.4441 8.57457 0 
-93.6502 20.5574 0 
-96.3692 7.06279 0 
-96.6234 -24.3479 0 
-95.214 -29.2859 0 
-100.455 -29.1985 0 
-87.3311 -10.8047 0 
-95.2998 10.8543 0 
-116.469 7.80702 0 
-116.089 -64.1925 0 
-133.906 -18.6032 0 
-102.486 -13.8821 0 
-64.3741 -9.20535 0 
-69.4609 -0.350806 0 
-80.4887 22.4422 0 
-117.037 -10.3005 0 
-88.2142 13.244 0 
-67.0946 5.06836 0 
-90.4974 -33.0367 0 
-74.089 16.9781 0 
-123.947 -34.3258 0 
-95.0236 14.0723 0 
-76.2622 19.3455 0 
-66.5198 5.34442 0 
-136.988 -11.6591 0 
-92.6019 -7.68861 0 
-95.4928 -13.63 0 
-89.0038 -11.0853 0 
-84.8926 -21.9633 0 
-66.3652 -0.978379 0 
-46.3486 13.8217 0 
-73.8567 -14.8835 0 
-81.867 -26.1039 0 
-100.491 4.74447 0 
-74.26 -8.4253 0 
-104.074 3.75558 0 
-110.348 -51.8045 0 
-91.086 3.09882 0 
-81.9754 -22.2835 0 
-107.362 -40.3675 0 
-82.9085 -38.7456 0 
-153.88 15.5451 0 
-109.42 21.1162 0 
-68.8842 -20.888 0 
-119.285 16.6099 0 
-118.962 -4.61381 0 
-103.47 3.05375 0 
-49.7817 1.03448 0 
-108.432 -6.38394 0 
-99.6276 -3.40585 0 
-69.0721 -11.6555 0 
-109.955 -40.1767 0 
-73.2171 16.3603 0 
-84.5732 0.95979 0 
-107.914 -20.6185 0 
-86.5985 -20.4964 0 
-106.818 -18.7292 0 
-98.8959 -34.2968 0 
-67.0966 0.0802115 0 
-101.183 -28.0026 0 
-83.9051 -6.8025 0 
-94.616 -5.26208 0 
-131.364 -20.45 0 
-92.5314 -14.4701 0 
-90.8705 36.2056 0 
-86.6403 20.2475 0 
-89.22 20.0318 0 
-62.7391 5.79527 0 
-110.883 3.1284 0 
-68.9321 75.1972 0 
-104.433 37.8975 0 
-115.818 48.0924 0 
-123.592 55.6914 0 
-98.5168 11.0276 0 
-76.087 48.1644 0 
-79.5619 -17.8017 0 
-91.5116 50.096 0 
-90.1736 39.9349 0 
-90.9387 9.05062 0 
-96.338 57.8301 0 
-87.1523 56.859 0 
-121.323 53.7734 0 
-97.8677 25.175 0 
-79.2975 42.9044 0 
-120.749 55.8077 0 
-105.693 -2.04377 0 
-136.912 27.3553 0 
-56.2035 59.9131 0 
-29.771 69.1539 0 
-46.8014 67.2108 0 
-46.9583 58.0514 0 
-46.1576 54.8877 0 
-55.2847 66.6532 0 
-94.5204 52.6148 0 
-88.2248 67.7177 0 
-86.7798 66.2902 0 
-53.5361 37.0907 0 
-59.4847 50.2096 0 
-40.1538 83.2985 0 
-82.25 64.5939 0 
-37.9181 76.2462 0 
-76.4847 64.1854 0 
-71.5843 96.0865 0 
-66.9341 87.7266 0 
-67.0563 43.4294 0 
-71.9273 85.3965 0 
-72.9091 121.537 0 
-90.2708 90.2991 0 
-72.5822 82.9929 0 
-72.7913 104.192 0 
-123.802 -65.9789 0 
-136.028 -108.607 0 
-151.441 -120.383 0 
-113.073 -100.533 0 
-145.348 -120.287 0 
-153.255 -127.845 0 
-92.0016 -157.713 0 
-112.06 -128.009 0 
-101.234 -158.003 0 
-88.7427 -97.6568 0 
-119.47 -76.1303 0 
-119.201 -67.7079 0 
-155.186 -58.6149 0 
-123.019 -69.8836 0 
-144.691 -76.511 0 
-141.644 -104.277 0 
-151.754 -98.5809 0 
-138.43 -96.3397 0 
-139.138 -91.7121 0 
-151.001 -104.181 0 
-107.333 -107.799 0 
-139.364 -79.3899 0 
-142.832 -111.575 0 
-138.537 -87.037 0 
-148.525 -96.7156 0 
-94.8759 -98.6452 0 
-145.985 -79.1255 0 
-116.609 -109.259 0 
-142.581 -78.313 0 
-144.332 -86.2686 0 
-138.189 -109.563 0 
-148.105 -79.2318 0 
-143.472 -73.1821 0 
-134.79 -83.7126 0 
-141.168 -80.0049 0 
-140.691 -86.3309 0 
-117.936 -105.071 0 
-151.105 -115.389 0 
-147.934 -83.9459 0 
-147.102 -109.109 0 
-150.474 -87.1352 0 
-127.557 -82.6555 0 
-143.388 -84.5985 0 
-154.744 -65.6061 0 
-130.444 -80.3361 0 
-143.979 -85.124 0 
-138.078 -99.6481 0 
-125.77 -108.563 0 
-144.836 -119.64 0 
-134.611 -66.2962 0 
-135.394 -129.616 0 
-136.415 -84.6324 0 
-95.1194 -124.73 0 
-65.5834 -120.349 0 