<VTKFile type="UnstructuredGrid" version="0.1" byte_order="BigEndian">
  <UnstructuredGrid>
        <Piece NumberOfPoints="8000" NumberOfCells="0" Time= "0.25">      <Points>
        <DataArray name="Position" type="Float32"  NumberOfComponents= "3"  format="ascii">

85.7377 0.108466 0 
86.3636 17.2781 0 
86.5212 33.3976 0 
86.6296 0.298493 0 
88.1262 2.79324 0 
86.9558 0.971154 0 
87.0004 2.82303 0 
87.5203 3.35341 0 
88.2985 1.91208 0 
88.6599 5.27295 0 
86.5086 4.72118 0 
88.4819 4.76729 0 
88.9929 8.24212 0 
89.2122 17.8534 0 
87.7308 25.7576 0 
86.9704 25.5401 0 
88.2605 38.0568 0 
91.5104 0.0425274 0 
90.8196 0.97947 0 
89.1466 38.7689 0 
90.9787 0.0720031 0 
91.0868 1.33144 0 
91.4977 0.3355 0 
89.5655 2.71505 0 
91.6014 3.35439 0 
91.4858 2.09005 0 
91.4898 3.71277 0 
91.0336 3.56776 0 
89.3156 4.24801 0 
91.3928 5.31553 0 
90.4398 3.13383 0 
89.4811 6.2617 0 
91.3766 6.92286 0 
90.7872 5.76047 0 
90.6404 5.89169 0 
91.5444 9.12253 0 
89.867 7.53892 0 
90.4729 8.39584 0 
91.2773 11.7354 0 
89.9779 17.3848 0 
91.2137 19.5379 0 
91.1727 19.0891 0 
89.7477 20.5723 0 
90.6304 23.3771 0 
89.3912 24.5659 0 
89.4899 25.9785 0 
91.1108 25.0494 0 
91.7382 29.6738 0 
89.7523 28.0141 0 
91.1724 30.8448 0 
90.815 32.4411 0 
89.6919 34.3199 0 
89.8979 36.5585 0 
90.9756 37.0425 0 
89.398 37.2211 0 
89.9984 36.1894 0 
91.4189 38.1277 0 
89.5609 38.4636 0 
91.2584 39.0087 0 
90.2711 38.2835 0 
92.6958 1.79778 0 
92.3682 39.142 0 
94.1585 39.4404 0 
94.1096 0.410971 0 
92.2976 2.16743 0 
93.4633 0.933274 0 
93.3848 38.0793 0 
92.52 0.171423 0 
93.8251 1.94041 0 
93.7384 2.58098 0 
93.2956 2.66874 0 
94.0771 2.92136 0 
92.3396 3.77 0 
92.8867 3.98058 0 
92.2104 2.90513 0 
92.971 2.74232 0 
93.3612 3.53897 0 
91.8383 3.1776 0 
93.0799 2.63579 0 
93.246 2.12425 0 
92.3434 2.24904 0 
93.1435 2.79356 0 
93.8518 6.4008 0 
92.8051 6.64243 0 
91.8467 4.73123 0 
93.5504 5.69432 0 
93.954 5.51607 0 
92.701 7.29217 0 
92.2593 7.91369 0 
93.0118 8.88111 0 
93.4121 8.32051 0 
93.6067 9.08484 0 
93.8252 11.2507 0 
92.0919 12.2413 0 
93.9453 10.7069 0 
92.5382 9.85167 0 
93.4426 11.3718 0 
93.4263 14.5282 0 
93.4978 14.7265 0 
92.7644 13.9656 0 
93.6735 12.96 0 
91.8937 12.8156 0 
91.8999 16.082 0 
93.3972 16.275 0 
91.8668 17.2393 0 
94.1116 17.6994 0 
93.9268 19.275 0 
92.3562 20.0131 0 
93.6141 17.2986 0 
92.1546 17.7107 0 
91.9903 21.205 0 
92.746 21.3977 0 
92.5868 23.8659 0 
93.4284 23.9999 0 
94.2114 24.9218 0 
92.3283 24.911 0 
91.6464 27.6397 0 
93.7537 26.8825 0 
94.0135 27.1377 0 
94.2854 25.8221 0 
94.06 26.077 0 
92.3018 28.7967 0 
94.3632 29.8014 0 
92.6108 28.1236 0 
92.7434 29.9619 0 
92.5853 31.054 0 
94.0037 31.4799 0 
91.6805 30.8828 0 
94.2124 30.5388 0 
93.4643 30.9012 0 
94.2223 32.6873 0 
91.9506 33.8933 0 
93.2104 35.3017 0 
94.31 32.7655 0 
93.7257 33.6022 0 
94.3397 32.902 0 
91.6043 32.9862 0 
93.004 33.7982 0 
93.5367 33.1131 0 
93.6683 34.126 0 
92.8168 36.643 0 
93.1411 35.5216 0 
92.6543 35.7201 0 
92.9303 36.232 0 
93.6117 36.3224 0 
93.3852 35.8382 0 
92.4355 37.7188 0 
93.6129 38.5594 0 
91.9155 37.7468 0 
93.2901 39.7319 0 
93.5249 38.7816 0 
92.7226 37.5939 0 
93.7909 37.8898 0 
95.9188 1.64537 0 
95.0189 1.42818 0 
94.8081 1.23019 0 
94.3875 1.06763 0 
96.5887 0.898495 0 
96.5459 1.85125 0 
95.941 1.87706 0 
95.341 1.43022 0 
96.5524 1.51269 0 
95.8045 1.94847 0 
96.2887 2.15628 0 
95.8087 1.6441 0 
96.0028 1.68703 0 
95.6017 1.90787 0 
96.5515 1.62415 0 
95.642 3.13716 0 
95.3525 1.34297 0 
96.0887 1.69126 0 
95.544 1.47898 0 
96.5883 0.723791 0 
95.3051 39.9358 0 
94.4175 1.58835 0 
94.5441 0.601758 0 
95.1285 0.0336323 0 
96.1286 5.31307 0 
96.3291 3.07767 0 
94.4839 4.29912 0 
95.82 3.83798 0 
95.4681 4.52788 0 
96.227 3.59866 0 
95.6681 4.36403 0 
95.7691 3.68883 0 
95.4972 3.94484 0 
94.382 4.3655 0 
95.3319 4.11505 0 
95.0519 3.81355 0 
95.7737 4.4317 0 
95.9939 2.02987 0 
95.0291 3.1588 0 
94.9326 3.9742 0 
95.4579 2.33849 0 
95.9864 4.32056 0 
95.5959 5.90677 0 
94.4446 5.63795 0 
94.2783 6.4727 0 
95.131 5.41436 0 
94.3887 5.15153 0 
96.0694 6.09362 0 
95.1608 6.85301 0 
95.2439 5.57968 0 
96.3541 5.3314 0 
94.6393 4.83906 0 
96.193 6.16717 0 
95.6764 5.98388 0 
96.4122 4.85932 0 
95.3007 6.33144 0 
94.9863 5.63025 0 
95.9941 7.34831 0 
95.9297 9.48806 0 
95.3656 7.65372 0 
94.3765 9.57124 0 
94.8422 8.73042 0 
94.5962 9.68206 0 
96.3273 8.52087 0 
96.3037 7.56231 0 
96.3468 9.63903 0 
96.4655 8.17031 0 
94.3637 9.53626 0 
96.799 9.0811 0 
96.0809 9.59684 0 
95.9305 7.39783 0 
94.4742 9.2554 0 
94.7037 7.35088 0 
96.6444 8.89812 0 
94.9271 9.64101 0 
96.0917 7.73206 0 
95.5287 9.3438 0 
95.7082 8.24359 0 
94.5056 8.0518 0 
95.4091 7.99073 0 
96.213 8.32419 0 
94.8258 9.70241 0 
94.166 9.76552 0 
94.2406 11.5465 0 
96.4383 9.95809 0 
96.8546 10.494 0 
95.592 11.6263 0 
94.8388 10.1566 0 
94.6104 11.0564 0 
96.0766 11.6575 0 
94.4056 10.1775 0 
95.0451 10.9244 0 
95.8791 10.731 0 
96.1296 9.89872 0 
96.4566 12.1376 0 
95.0976 11.5244 0 
94.5404 10.3733 0 
95.5632 11.2053 0 
95.8255 10.7582 0 
94.5266 13.9147 0 
94.8086 12.3219 0 
95.9808 13.1312 0 
96.4284 13.2295 0 
95.2279 12.396 0 
95.9834 13.1196 0 
95.5464 14.8478 0 
95.8035 13.2889 0 
95.0981 13.4528 0 
96.6164 14.5572 0 
94.9952 12.7297 0 
94.1898 13.9113 0 
95.4355 14.4946 0 
95.8746 13.8088 0 
94.3411 13.5106 0 
95.9617 12.7771 0 
96.341 15.8911 0 
95.4686 17.3744 0 
95.5985 15.9985 0 
95.5581 16.6238 0 
96.2663 16.1213 0 
96.7486 14.7651 0 
94.962 16.2968 0 
95.8118 16.8207 0 
94.9279 16.2945 0 
96.3152 15.442 0 
95.7865 17.3981 0 
94.2701 15.4179 0 
94.5158 14.94 0 
95.3648 14.933 0 
94.3161 16.4746 0 
95.5423 17.7005 0 
95.8199 19.4565 0 
94.8612 18.7449 0 
95.3621 19.2809 0 
94.2685 19.2454 0 
95.0494 18.0722 0 
95.6916 17.6512 0 
96.1386 21.8494 0 
96.4582 21.4325 0 
95.1855 20.6408 0 
94.5218 22.0974 0 
94.9263 20.3608 0 
94.7655 23.0544 0 
94.466 23.3603 0 
95.7914 27.4935 0 
95.1236 24.9996 0 
96.8858 27.5676 0 
95.1521 26.5066 0 
95.8013 26.0745 0 
95.2838 27.2518 0 
95.8608 26.3395 0 
94.7927 29.015 0 
96.3233 27.7283 0 
94.8048 30.3088 0 
96.0825 29.2691 0 
94.3703 28.0502 0 
96.4494 28.5313 0 
95.3789 28.3896 0 
96.3084 30.61 0 
96.5812 30.5169 0 
96.1128 31.5248 0 
95.5805 29.391 0 
96.4513 30.8661 0 
96.6046 32.2907 0 
95.3529 31.5375 0 
95.0223 31.9943 0 
95.8008 31.2988 0 
96.0251 32.002 0 
94.7474 31.7089 0 
95.0108 31.3389 0 
96.8815 30.3986 0 
96.6256 30.2259 0 
96.5243 31.231 0 
95.8169 34.0233 0 
95.1702 33.3973 0 
95.6325 33.7319 0 
96.1751 31.8576 0 
95.5103 32.0825 0 
94.8761 33.9285 0 
95.0063 32.8924 0 
96.131 33.9935 0 
96.8019 32.461 0 
95.5592 33.3619 0 
96.3824 33.9765 0 
95.5678 35.4849 0 
96.3236 35.4966 0 
95.2749 34.5511 0 
95.7641 36.418 0 
95.4018 34.2908 0 
94.4977 34.6161 0 
96.5555 36.1532 0 
95.694 35.6125 0 
96.0527 36.6943 0 
96.697 37.4045 0 
95.636 35.7825 0 
96.0894 35.7657 0 
94.8055 35.7776 0 
94.845 37.3784 0 
96.276 35.0828 0 
95.0432 34.5746 0 
94.6981 35.4629 0 
96.0168 38.9104 0 
96.2693 38.1178 0 
95.8379 38.652 0 
95.9265 36.8885 0 
95.3058 37.6669 0 
96.3466 38.2714 0 
95.5433 38.0791 0 
95.6199 36.8516 0 
96.2403 38.7115 0 
94.5798 39.3941 0 
99.0069 0.550266 0 
98.6564 38.2469 0 
97.7058 38.3377 0 
99.2942 1.07841 0 
98.5376 0.744396 0 
98.9975 38.04 0 
97.0984 39.9434 0 
98.6019 1.08851 0 
98.4459 0.744813 0 
98.0226 0.211689 0 
99.1364 1.48364 0 
97.8815 1.86361 0 
98.467 1.12575 0 
98.3764 1.22593 0 
99.1287 0.489732 0 
98.0533 1.10388 0 
97.176 1.10686 0 
97.4004 0.453198 0 
97.2093 0.0200277 0 
97.6311 0.888949 0 
98.8374 1.56015 0 
97.9537 2.45498 0 
98.8677 2.86119 0 
98.9055 2.96836 0 
98.7474 3.42025 0 
97.7298 4.02722 0 
97.9097 2.11315 0 
97.438 3.60069 0 
97.3733 2.97046 0 
98.8541 2.86297 0 
99.2479 3.65761 0 
97.4927 2.76302 0 
97.1903 4.57718 0 
99.0816 1.94857 0 
98.1574 4.20343 0 
97.9854 2.71565 0 
98.6194 2.24994 0 
97.5294 4.15746 0 
97.5563 3.76159 0 
99.1979 4.02806 0 
96.8479 4.47358 0 
96.6871 2.03342 0 
98.5955 3.76961 0 
97.7303 2.7023 0 
98.208 2.43011 0 
98.8408 4.92351 0 
98.9305 3.12719 0 
96.7954 2.31553 0 
99.0267 6.64658 0 
99.0491 5.61833 0 
98.3087 5.93721 0 
97.0485 6.19163 0 
98.6147 4.72485 0 
98.7857 5.38911 0 
98.1397 5.09213 0 
98.4708 5.9461 0 
99.235 5.60479 0 
98.2872 5.13937 0 
98.816 6.68249 0 
97.391 5.67507 0 
98.2493 4.6657 0 
99.0183 5.96632 0 
99.0755 5.48453 0 
97.9407 4.88736 0 
98.1869 5.39134 0 
97.741 7.03168 0 
98.6477 5.1884 0 
97.1606 6.42666 0 
98.9193 5.2112 0 
97.3478 6.38774 0 
98.9325 5.61073 0 
99.2145 4.59339 0 
97.2461 5.58202 0 
98.8147 6.63591 0 
97.8969 4.5728 0 
96.8032 6.80294 0 
97.9486 6.62392 0 
97.3984 9.52795 0 
97.7537 7.83836 0 
96.9416 8.07638 0 
98.9137 8.66018 0 
98.1929 8.78886 0 
98.0079 7.86583 0 
98.4452 9.78829 0 
99.3092 8.73 0 
97.9992 7.85595 0 
96.908 8.38653 0 
97.4865 7.98755 0 
97.921 9.23054 0 
96.9665 8.45533 0 
98.9263 8.77094 0 
99.2857 8.83024 0 
98.2172 7.90042 0 
97.0456 9.36846 0 
97.5914 8.27306 0 
97.3503 9.10943 0 
97.9422 7.77167 0 
98.1832 7.54597 0 
97.0536 8.56834 0 
97.6476 7.26829 0 
98.6448 7.59479 0 
98.5144 7.62601 0 
97.6243 7.73837 0 
98.1503 8.76319 0 
99.2486 11.0661 0 
97.1389 9.74698 0 
96.6008 10.6079 0 
97.0255 11.3235 0 
96.9955 11.4993 0 
96.6522 10.1028 0 
98.9787 11.0271 0 
98.3797 9.5981 0 
98.6002 11.04 0 
97.3673 10.8357 0 
97.7913 11.0926 0 
96.8012 11.846 0 
97.5228 11.1873 0 
97.5094 12.1442 0 
96.9883 9.96819 0 
98.2277 11.0486 0 
97.4275 10.9321 0 
96.7665 12.154 0 
97.8287 11.2723 0 
97.1098 10.3936 0 
97.9697 10.7318 0 
97.0332 10.6189 0 
98.094 11.5313 0 
97.9331 11.0257 0 
99.1301 11.0069 0 
97.5174 10.9521 0 
97.2237 11.9089 0 
98.4688 10.8913 0 
98.5469 11.3779 0 
99.4168 10.125 0 
98.203 10.5035 0 
99.0666 10.4539 0 
98.86 12.2253 0 
96.6943 13.294 0 
96.932 13.5986 0 
98.1152 13.7041 0 
97.3228 12.7077 0 
99.1574 14.0706 0 
98.3537 13.0271 0 
97.6853 12.5177 0 
98.7925 13.7644 0 
97.5751 12.458 0 
98.2435 13.5398 0 
98.4098 12.7979 0 
97.8896 14.6922 0 
96.7807 14.359 0 
97.4772 13.315 0 
97.6359 12.5866 0 
97.834 13.1913 0 
[...]
      <PointData Vectors="vector">
        <DataArray type="Float32" Name="Velocity" NumberOfComponents="3" format="ascii">

-233.661 -170.848 0 
-229.007 -149.171 0 
-205.567 -124.382 0 
-228.978 -101.331 0 
-204.123 -67.0232 0 
-180.913 -28.5737 0 
-171.138 20.3683 0 
-178.135 66.3161 0 
-170.659 -121.527 0 
-118.663 114.533 0 
-181.998 -76.7524 0 
-146.544 112.135 0 
-201.134 -70.7423 0 
-199.308 -88.7034 0 
-171.902 -56.9993 0 
-174.64 -52.075 0 
-171.822 -46.1322 0 
-184.62 -2.9861 0 
-152.946 -10.8268 0 
-133.075 15.5622 0 
-176.289 4.71583 0 
-114.321 24.9196 0 
-203.513 9.29364 0 
-144.899 37.1394 0 
-144.011 102.807 0 
-158.271 85.5784 0 
-137.319 101.327 0 
-183.555 -144.966 0 
-211.22 -117.431 0 
-194.33 -99.345 0 
-220.648 -92.3109 0 
-173.046 -115.135 0 
-177.254 -125.949 0 
-170.065 -128.806 0 
-185.735 -119.822 0 
-188.752 -149.372 0 
-146.115 -126.458 0 
-116.038 100.795 0 
-131.74 -124.866 0 
-148.351 -79.6763 0 
-181.568 -50.8544 0 
-189.274 -82.452 0 
-147.607 -68.1414 0 
-155.243 -84.4524 0 
-161.299 -69.6568 0 
-146.422 -63.5261 0 
-176.08 -106.542 0 
-170.977 -77.3439 0 
-118.616 86.4885 0 
-172.401 -65.8375 0 
-165.601 -23.774 0 
-145.515 -52.2062 0 
-155.496 -56.6061 0 
-156.936 -26.9353 0 
-167.312 -17.5015 0 
-174.049 -47.8079 0 
-170.866 3.44223 0 
-167.903 -6.79041 0 
-145.969 -14.7453 0 
-147.369 -8.04182 0 
-151.454 -26.0108 0 
-144.928 23.2808 0 
-171.98 18.3801 0 
-133.542 23.6822 0 
-110.393 29.196 0 
-180.958 -1.43036 0 
-120.573 61.4347 0 
-135.133 -148.671 0 
-172.686 45.4744 0 
-122.799 48.3866 0 
-163.98 -145.455 0 
-135.844 80.4603 0 
-178.455 -128.673 0 
-182.711 -143.729 0 
-133.805 90.9178 0 
-192.081 -113.285 0 
-146.426 -58.9662 0 
-180.677 -113.891 0 
-126.272 101.244 0 
-180.2 -126.435 0 
-106.466 95.2121 0 
-152.327 -113.001 0 
-173.716 -91.9952 0 
-142.863 -92.8382 0 
-139.318 -94.3121 0 
-164.316 -95.9874 0 
-176.056 -85.0071 0 
-163.763 -97.1347 0 
-168.894 -71.2068 0 
-179.935 -132.762 0 
-180.79 -86.0945 0 
-161.678 -79.926 0 
-139.444 -104.295 0 
-169.644 -80.4925 0 
-146.535 -69.337 0 
-142.138 -77.3853 0 
-169.507 -110.333 0 
-173.841 -121.184 0 
-188.097 -107.223 0 
-183.139 -101.916 0 
-181.708 -112.776 0 
-166.301 -94.9529 0 
-154.704 -78.9658 0 
-194.268 -88.2338 0 
-183.794 -74.7441 0 
-185.072 -61.4821 0 
-159.254 -105.938 0 
-132.065 -68.1572 0 
-146.097 -83.7076 0 
-125.526 -92.439 0 
-146.213 -56.342 0 
-163.905 -103.461 0 
-150.364 -63.8572 0 
-157.749 -78.7639 0 
-185.082 -78.6408 0 
-190.929 -79.1245 0 
-167.743 -97.7467 0 
-137.698 -56.1844 0 
-160.96 -54.7562 0 
-160.826 -74.208 0 
-157.711 -55.7029 0 
-181.699 -90.97 0 
-147.68 -48.0984 0 
-126.068 -45.2805 0 
-170.106 -39.0713 0 
-134.844 -69.7717 0 
-165.483 -55.7589 0 
-178.452 -35.2489 0 
-172.892 -37.5489 0 
-165.479 -46.8798 0 
-166.155 -47.0137 0 
-176.27 -66.1272 0 
-189.312 -65.3237 0 
-160.662 -17.9174 0 
-153.138 0.380204 0 
-185.811 -52.0624 0 
-167.305 -57.4112 0 
-164.444 -20.1617 0 
-155.054 -27.8397 0 
-125.05 -59.3308 0 
-186.279 -73.0821 0 
-150.208 -38.7857 0 
-150.821 -0.878234 0 
-141.468 -31.0912 0 
-201.167 -43.5643 0 
-143.74 -30.3907 0 
-170.723 -31.1183 0 
-143.338 -20.3931 0 
-160.673 -18.229 0 
-145.064 -2.86115 0 
-157.525 15.9155 0 
-143.93 -0.199291 0 
-137.012 6.86499 0 
-164.231 9.06375 0 
-119.694 57.5579 0 
-126.203 8.75071 0 
-130.401 -12.7794 0 
-128.979 4.66817 0 
-139.396 22.2424 0 
-113.19 35.2759 0 
-101.714 54.4376 0 
-157.267 43.1759 0 
-133.991 27.3432 0 
-156.626 52.4507 0 
-135.676 25.4759 0 
-165.96 22.6161 0 
-151.018 -150.986 0 
-117.734 45.6635 0 
-162.359 61.4814 0 
-93.0886 47.0696 0 
-166.271 29.884 0 
-165.863 67.6972 0 
-166.657 -175.394 0 
-138.281 72.9464 0 
-149.432 40.6913 0 
-136.954 -153.985 0 
-150.984 83.5568 0 
-139.898 -140.257 0 
-132.45 -102.945 0 
-156.337 -121.16 0 
-130.409 56.2619 0 
-119.245 58.0282 0 
-172.633 -122.791 0 
-136.413 82.6624 0 
-160.649 -133.704 0 
-153.914 75.4246 0 
-183.185 -118.728 0 
-113.72 81.1739 0 
-172.808 -85.3102 0 
-153.871 -120.384 0 
-122.272 73.634 0 
-157.549 -90.1991 0 
-174.806 -122.898 0 
-166.003 -123.949 0 
-131.051 66.6327 0 
-111.453 78.9866 0 
-129.218 -129.261 0 
-130.01 -98.7844 0 
-167.91 -95.1824 0 
-145.08 -108.362 0 
-226.41 -94.6582 0 
-166.164 -116.454 0 
-135.601 -98.7416 0 
-176.013 -101.061 0 
-144.805 -100.348 0 
-151.472 -112.954 0 
-162.66 -104.294 0 
-116.496 117.624 0 
-131.882 138.248 0 
-131.126 96.0724 0 
-131.934 -103.221 0 
-169.74 -96.6902 0 
-184.805 -103.479 0 
-142.96 -119.696 0 
-169.146 -100.552 0 
-122.711 -83.3293 0 
-135 -114.895 0 
-135.257 -112.353 0 
-152.539 -158.614 0 
-107.972 -118.365 0 
-155.169 -73.2713 0 
-97.5745 93.8503 0 
-155.332 -99.1257 0 
-152.13 -89.5789 0 
-143.79 -112.592 0 
-138.605 -132.326 0 
-135.571 -108.761 0 
-123.858 -108.101 0 
-182.34 -76.3314 0 
-179.018 -89.0996 0 
-183.805 -87.5904 0 
-170.849 -90.4601 0 
-148.47 -66.8308 0 
-125.075 -101.302 0 
-166.992 -54.6806 0 
-141.875 -112.634 0 
-149.842 -67.6426 0 
-134.961 -121.395 0 
-115.572 137.749 0 
-144.301 -69.8651 0 
-162.355 -91.9247 0 
-135.32 -91.8721 0 
-167.302 -108.074 0 
-164.643 -105.088 0 
-104.038 116.24 0 
-147.682 -103.975 0 
-149.83 -45.2217 0 
-168.573 -93.5331 0 
-119.966 -90.8185 0 
-121.579 -90.7971 0 
-158.327 -95.2324 0 
-149.687 -92.6233 0 
-145.781 -53.6327 0 
-152.944 -95.4062 0 
-134.836 -110.243 0 
-122.304 -69.9634 0 
-152.925 -78.863 0 
-129.637 -106.501 0 
-115.15 -80.542 0 
-153.35 -45.2082 0 
-108.387 -81.8741 0 
-134.482 -40.6308 0 
-158.121 -71.1457 0 
-149.564 -56.6649 0 
-184.253 -67.9914 0 
-186.881 -29.4126 0 
-168.097 -82.6431 0 
-179.912 -86.2017 0 
-145.314 -69.5306 0 
-175.899 -62.1338 0 
-162.715 -101.469 0 
-140.194 -54.4596 0 
-132.372 -60.4328 0 
-123.887 -59.0441 0 
-159.02 -69.2131 0 
-185.703 -44.7024 0 
-164.691 -71.4973 0 
-155.972 -61.3045 0 
-120.635 -58.7005 0 
-123.578 -77.8517 0 
-151.045 -80.2205 0 
-184.119 -72.1967 0 
-175.053 -73.6002 0 
-120.942 -75.9764 0 
-147.715 -85.0056 0 
-145.485 -76.1068 0 
-195.531 -85.0548 0 
-131.46 -74.7713 0 
-148.883 -55.5839 0 
-184.778 -73.2123 0 
-182.519 -44.5815 0 
-129.346 -75.5598 0 
-189.24 -64.6567 0 
-154.387 -73.3376 0 
-129.967 -14.7896 0 
-163.187 -81.2712 0 
-141.7 -37.4992 0 
-188.741 -81.1648 0 
-162.418 -57.3336 0 
-142.8 -70.8021 0 
-136.796 -29.9425 0 
-147.378 -64.7318 0 
-159.011 -40.5246 0 
-156.47 -17.9035 0 
-141.114 -81.4118 0 
-169.692 -77.6822 0 
-144.269 -55.0362 0 
-161.568 -53.3105 0 
-170.883 -33.8881 0 
-128.334 -69.4825 0 
-133.802 -33.3863 0 
-164.497 -42.4097 0 
-141.802 -16.7758 0 
-149.1 -20.7108 0 
-176.537 -26.4305 0 
-178.982 -41.6417 0 
-133.764 -27.7957 0 
-143.328 -70.1122 0 
-178.764 -56.1934 0 
-161.988 -42.2729 0 
-138.749 -24.186 0 
-170.048 -60.9166 0 
-170.625 -61.5881 0 
-157.08 -23.5391 0 
-133.463 -24.7385 0 
-166.714 3.11062 0 
-145.333 -5.06332 0 
-137.465 -30.4951 0 
-133.406 18.9362 0 
-192.815 -20.8767 0 
-172.507 -56.7439 0 
-140.805 -26.6484 0 
-139.793 -6.07691 0 
-168.853 17.0431 0 
-167.097 2.52879 0 
-149.883 -15.3457 0 
-143.599 -4.79365 0 
-144.654 -35.9852 0 
-120.51 -15.456 0 
-177.441 -6.36614 0 
-151.724 -26.8045 0 
-156.592 10.9243 0 
-150.516 15.4869 0 
-157.348 17.62 0 
-149.186 16.1818 0 
-99.9574 -5.61463 0 
-168.697 -5.36646 0 
-149.039 33.6547 0 
-171.935 -7.9725 0 
-146.013 6.1656 0 
-112.412 -5.184 0 
-91.3879 -21.725 0 
-168.014 14.3888 0 
-145.792 10.5127 0 
-88.0685 12.7576 0 
-161.294 19.0532 0 
-154.402 17.7153 0 
-92.119 -9.04859 0 
-113.717 -23.7719 0 
-90.3026 46.2164 0 
-139.504 6.18115 0 
-97.5146 27.8713 0 
-142.423 13.3846 0 
-116.955 54.5285 0 
-126.089 65.5115 0 
-127.985 -153.255 0 
-112.727 29.6317 0 
-132.386 44.8421 0 
-129.843 41.3471 0 
-127.055 35.6691 0 
-105.748 49.1841 0 
-179.013 -141.006 0 
-201.954 -179.229 0 
-200.593 -175.742 0 
-205.581 -129.991 0 
-172.197 -158.65 0 
-109.749 -162.399 0 
-159.974 -169.365 0 
-118.287 60.5913 0 
-134.109 64.9841 0 
-104.128 52.6757 0 
-156.591 -159.186 0 
-113.605 25.927 0 
-183.11 -182.046 0 
-136.939 -163.523 0 
-148.936 22.4388 0 
-161.839 -148.42 0 
-202.677 -180.106 0 
-129.205 42.9271 0 
-137.469 -139.086 0 
-138.103 -188.256 0 
-136.299 -139.742 0 
-115.825 -170.144 0 
-118.843 32.0855 0 
-111.105 45.2396 0 
-133.214 -141.019 0 
-126.776 -145.315 0 
-170.367 -110.558 0 
-210.882 -112.949 0 
-208.395 -125.657 0 
-180.547 -114.756 0 
-223.067 -115.255 0 
-194.536 -111.063 0 
-222.692 -110.778 0 
-169.489 -110.572 0 
-196.976 -111.349 0 
-122.918 -160.094 0 
-140.995 -142.459 0 
-132.336 -151.875 0 
-166.303 -166.912 0 
-111.181 -130.75 0 
-170.588 -136.9 0 
-149.385 94.2946 0 
-127.677 64.359 0 
-154.724 -153.69 0 
-141.084 53.9489 0 
-119.274 -171.076 0 
-152.533 -152.376 0 
-214.684 -72.8769 0 
-206.901 -91.8206 0 
-186.781 -79.8261 0 
-192.784 -90.7827 0 
-174.87 -116.784 0 
-140.948 -124.379 0 
-123.688 66.2489 0 
-138.902 -157.46 0 
-110.542 -99.543 0 
-177.201 -141.083 0 
-157.363 -160.314 0 
-174.149 -149.955 0 
-164.069 -89.7974 0 
-159.561 -152.152 0 
-131.137 88.8617 0 
-157.65 -137.408 0 
-150.067 -145.256 0 
-143.527 -125.682 0 
-192.408 -66.7017 0 
-157.692 -73.6272 0 
-209.353 -89.7663 0 
-208.444 -65.6087 0 
-147.124 -87.0307 0 
-173.719 -126.478 0 
-112.371 59.7212 0 
-174.668 -151.146 0 
-151.278 -112.417 0 
-135.724 -130.131 0 
-130.746 99.5444 0 
-156.212 -121.134 0 
-180.318 -82.6681 0 
-172.503 -58.9333 0 
-171.156 -88.8309 0 
-187.332 -110.227 0 
-190.414 -108.783 0 
-134.157 -112.218 0 
-180.357 -101.268 0 
-116.753 -108.494 0 
-123.268 -89.0136 0 
-170.022 -124.02 0 
-175.081 -127.128 0 
-153.183 -89.5305 0 
-118.398 -89.8683 0 
-131.039 -131.519 0 
-174.497 -124.568 0 
-192.901 -101.18 0 
-122.893 -107.108 0 
-127.212 -116.225 0 
-141.629 -143.711 0 
-164.173 -96.2633 0 
-170.239 -104.075 0 
-144.844 -87.6367 0 
-182.206 -104.98 0 
-166.497 -145.872 0 
-132.236 -119.282 0 
-165.085 -132.375 0 
-131.017 -99.9228 0 
-132.748 -112.012 0 
-147.859 -104.63 0 
-187.438 -93.9526 0 
-177.277 -125.375 0 
-162.465 -98.1138 0 
-141.764 -115.912 0 
-190.993 -108.098 0 
-155.798 -154.612 0 
-173.787 -113.378 0 
-179.57 -137.125 0 
-150.141 -87.5127 0 
-139.781 -144.158 0 
-181.761 -67.0493 0 
-158.525 -71.2677 0 
-160.12 -111.064 0 
-157.884 -74.2673 0 
-123.173 -116.971 0 
-148.217 -93.8143 0 
-161.304 -119.581 0 
-150.091 -124.819 0 
-136.342 -94.2846 0 
-155.192 -91.8759 0 
-154.915 -97.9558 0 
-119.103 -95.9409 0 
-119.644 72.8165 0 
-149.906 -113.731 0 
-130.984 -112.244 0 
-136.271 -64.4942 0 
-156.051 -119.998 0 
-126.971 -113.38 0 
-151.784 -88.3825 0 
-140.28 -88.6324 0 
-156.052 -129.924 0 
-123.416 -104.93 0 
-155.051 -84.5691 0 
-115.46 125.121 0 
-170.735 -142.429 0 
-147.404 -84.8032 0 
-154.179 -120.85 0 
-167.621 -79.6914 0 
-111.571 110.425 0 
-133.332 -99.4353 0 
-146.802 -85.7078 0 
-157.853 -114.058 0 
-154.642 -112.13 0 
-179.508 -102.605 0 
-177.359 -92.0679 0 
-176.157 -74.3177 0 
-180.581 -51.9298 0 
-179.431 -101.716 0 
-102.299 -74.0196 0 
-125.205 -71.9003 0 
-138.303 -78.3388 0 
-148.289 -58.7586 0 
-121.01 -42.82 0 
-162.661 -111.367 0 
-114.269 -103.828 0 
-120.304 -120.094 0 
-110.886 -62.9903 0 
-146.711 -79.6548 0 
-121.989 -102.517 0 
-154.72 -66.8263 0 
-133.9 -93.5599 0 
-156.113 -102.883 0 
-172.979 -78.0639 0 
-154.542 -94.624 0 
-146.36 -75.4637 0 
-127.351 -45.7438 0 
-156.897 -81.1421 0 
-138.84 -101.521 0 
-145.968 -79.4988 0 
-159.752 -57.6936 0 
-139.673 -65.9649 0 
-135.854 -86.5384 0 
-161.746 -79.5548 0 
-135.573 -79.1577 0 
-186.516 -45.0144 0 
-176.141 -47.9706 0 
-121.006 -58.4041 0 
-123.667 -81.805 0 
-170.475 -55.5881 0 
-129.313 -69.8781 0 
-136.718 -22.2503 0 
-136.503 -88.0866 0 
-126.842 -67.2727 0 
-169.017 -69.2769 0 
-124.663 -80.2716 0 
-128.821 -36.2441 0 
-136.735 -71.9456 0 
-133.728 -83.1423 0 
-180.404 -57.1498 0 
-150.959 -79.9777 0 
-141.086 -70.82 0 
-165.599 -57.5603 0 
-127.474 -77.7934 0 
-127.628 -92.243 0 
-131.441 -84.4438 0 
-152.39 -90.43 0 
-148.005 -89.8936 0 
-132.944 -73.48 0 
-126.901 -78.401 0 
-177.6 -63.9408 0 
-148.38 -52.8581 0 
-130.903 -61.8478 0 
-141.658 -84.5714 0 
-168.267 -4.45302 0 
-163.021 7.28386 0 
-117.63 -54.3244 0 
-98.8759 -76.619 0 
-154.637 -59.6257 0 
-162.857 -73.9995 0 
-167.734 -47.5344 0 
-180.847 -54.964 0 
-153.857 -89.172 0 
-105.569 -42.3125 0 
-145.08 -44.7136 0 
-138.791 -54.3967 0 
-125.575 -52.0409 0 
-159.375 -32.3445 0 
-128.823 -45.6254 0 
-183.182 -83.1739 0 
-181.792 -73.8788 0 
-141.867 -44.417 0 
-172.587 -55.9464 0 
-108.501 -49.6734 0 
-132.798 -44.1782 0 
-141.892 -75.0065 0 
-158.025 -77.8994 0 
-107.701 -76.2174 0 
-158.243 -70.21 0 
-140.355 -36.5174 0 
-122.232 -56.6606 0 
-140.423 -20.5031 0 
-154.851 -75.9898 0 
-141.206 -51.2566 0 
-126.364 -37.7156 0 
-129.435 -50.3579 0 
-131.348 -25.3791 0 
-147.833 -30.5068 0 
-159.058 -41.9179 0 
-146.058 -50.0517 0 
-147.84 -47.3974 0 
-112.884 -34.7548 0 
-129.513 -59.8381 0 
-160.795 -38.6761 0 
-128.687 -31.0937 0 
-122.53 -46.8363 0 
-190.663 -50.0779 0 
-149.497 -37.4463 0 
-132.246 -25.8876 0 
-98.7519 -38.2801 0 
-146.678 -39.5332 0 
-145.717 -65.9399 0 
-118.352 -83.2666 0 
-120.819 -63.751 0 
-127.721 -74.6232 0 
-160.06 -45.2104 0 
-96.8459 -42.1166 0 
-107.337 -26.3154 0 
-180.284 -29.7191 0 
-157.32 -64.4221 0 
-178.663 -4.0636 0 
-165.787 -23.4746 0 
-208.656 -20.4888 0 
-107.281 -12.9141 0 
-172.859 -31.1311 0 
-115.247 -11.6389 0 
-155.732 -24.0098 0 
-138.808 -4.32934 0 
-146.986 -5.0429 0 
-112.096 -10.0617 0 
-133.167 -9.22311 0 
-175.309 -10.4475 0 
-137.124 -22.9819 0 
-139.733 -6.80796 0 
-132.962 -1.35628 0 
-137.601 -8.86727 0 
-127.284 -39.1106 0 
-159.549 -25.3248 0 
-147.959 -24.5334 0 
-141.055 7.73597 0 
-170.617 15.3225 0 
-129.765 -20.9777 0 
-115.068 -32.7024 0 
-127.444 -1.90144 0 
-158.135 -25.1317 0 
-175.273 -21.7735 0 
-164.983 -23.5981 0 
-99.1701 -7.68904 0 
-105.765 7.62346 0 
-157.172 -7.5602 0 
-138.167 -20.7433 0 
-154.402 -59.365 0 
-146.409 -41.5464 0 
-116.299 -35.0117 0 
-127.967 -14.22 0 
-140.083 7.17942 0 
-125.574 3.67971 0 
-115.251 -16.5934 0 
-185.251 -15.6154 0 
-161.234 -8.71753 0 
-131.228 3.53553 0 
-149.328 -17.1949 0 
-128.604 4.89564 0 
-145.902 -22.168 0 
-148.516 -14.572 0 
-137.53 6.75285 0 
-126.119 -5.0935 0 
-138.119 -13.4497 0 
-138.979 -8.75933 0 
-185.601 7.0505 0 
-117.299 -10.8774 0 
-158.171 -13.7143 0 
-145.774 -21.1326 0 
-143.39 -10.124 0 
-183.856 19.3619 0 
-168.389 -18.6322 0 
-119.258 4.90673 0 
-153.01 -7.5539 0 
-126.738 21.8494 0 
-142.795 -36.8783 0 
-125.687 0.687336 0 
-132.815 11.6303 0 
-122.905 6.78831 0 
-156.062 45.9879 0 
-127.688 -39.0468 0 
-127.611 14.2079 0 
-144.406 13.2103 0 
-137.959 -31.9568 0 
-121.447 14.6419 0 
-139.743 9.05454 0 
-106.851 -5.94141 0 
-149.946 20.6895 0 
-111.631 40.2758 0 
-198.817 -8.75047 0 
-103.38 18.8153 0 
-102.114 22.3582 0 
-142.665 -3.36728 0 
-127.568 16.539 0 
-133.88 -139.424 0 
-155.287 38.9013 0 
-91.6005 3.28273 0 
-129.763 14.7964 0 
-113.26 31.776 0 
-123.668 31.4732 0 
-188.005 -129.408 0 
-139.142 -7.23652 0 
-124.128 10.9739 0 
-91.7631 -174.068 0 
-133.078 52.7962 0 
-82.4572 28.7753 0 
-180.341 -142.624 0 
-168.407 -174.637 0 
-175.163 -129.092 0 
-104.872 42.4306 0 
-167.99 -176.892 0 
-109.5 23.2419 0 
-114.048 -169.389 0 
-173.051 -144.088 0 
-174.641 -121.763 0 
-180.116 -154.719 0 
-179.854 -146.937 0 
-189.348 -138.917 0 
-182.944 -127.89 0 
-195.357 -150.604 0 
-112.321 8.70485 0 
-146.097 -178.629 0 
-136.174 -179.498 0 
-161.645 -186.351 0 
-114.639 -170.362 0 
-167.767 -184.562 0 
-115.612 38.7894 0 
-97.6549 40.5601 0 
-113.223 -164.056 0 
-110.417 50.9521 0 
-91.4759 -163.015 0 
-164.325 -96.8796 0 
-169.676 -138.873 0 
-171.442 -148.119 0 
-174.785 -124.586 0 
-168.831 -126.979 0 
-193.261 -145.766 0 
-173.75 -129.574 0 
-145.041 -163.072 0 
-130.566 -118.399 0 
-141.66 -166.995 0 
-130.348 -150.98 0 
-101.307 -187.476 0 
-131.786 -147.227 0 
-141.618 -143.613 0 
-95.2577 -141.12 0 
-147.947 -172.231 0 
-139.534 -143.572 0 
-116.274 -151.657 0 
-108.837 68.5426 0 
-132.52 -146.446 0 
-133.692 -152.838 0 
-149.218 -179.059 0 
-156.835 -170.447 0 
-189.165 -65.565 0 
-152.223 -120.567 0 
-152.859 -108.962 0 
-161.958 -71.099 0 
-184.363 -105.999 0 
-191.42 -91.0712 0 
-189.994 -107.145 0 
-189.116 -88.9524 0 
-190.729 -105.483 0 
-182.359 -96.4501 0 
-161.741 -114.464 0 
-163.168 -91.4373 0 
-187.894 -88.0194 0 
-197.299 -96.8741 0 
-156.82 -127.441 0 
-190.249 -112.155 0 
-163.331 -149.355 0 
-153.116 -107.666 0 
-150.078 -159.655 0 
-119.563 -135.005 0 
-97.8699 79.8304 0 
-174.909 -137.064 0 
-136.932 -111.206 0 
-117.157 -128.199 0 
-123.912 -136.118 0 
-141.479 -145.395 0 
-135.255 -139.634 0 
-132.207 -142.168 0 
-130.732 -135.296 0 
-157.377 -114.482 0 
-138.821 -150.141 0 
-135.033 -157.843 0 
-122.882 -129.843 0 
-166.277 -112.709 0 
-143.884 -139.338 0 
-149.08 -147.51 0 
-132.3 -132.997 0 
-132.469 -82.1839 0 
-143.821 -131.973 0 
-152.166 -141.344 0 
-110.957 -117.563 0 
-165.535 -125.873 0 
-98.3115 73.1714 0 
-154.636 -122.378 0 
-135.558 -147.036 0 
-139.883 -127.916 0 
-123.077 -135.527 0 
-159.777 -93.4118 0 
-165.841 -108.948 0 
-170.627 -128.214 0 
-184.992 -129.128 0 
-167.056 -85.8084 0 
-191.269 -87.821 0 
-191.5 -132.823 0 
-173.121 -101.524 0 
-165.4 -90.0991 0 
-190.883 -135.152 0 
-183.343 -73.8683 0 
-87.8776 76.5405 0 
-147.542 -119.559 0 
-130.134 -122.684 0 
-162.246 -120.947 0 
-130.096 -105.78 0 
-123.961 -100.82 0 
-138.3 -78.3462 0 
-148.945 -145.467 0 
-137.354 -112.467 0 
-169.289 -148.672 0 
-95.6397 84.1235 0 
-200.459 -139.545 0 
-151.453 -137.528 0 
-130.511 -141.244 0 
-117.637 124.255 0 
-119.967 -128.969 0 
-159.128 -124.997 0 
-159.016 -117.868 0 
-126.434 -113.773 0 
-192.66 -106.959 0 
-199.439 -101.664 0 
-158.515 -86.9885 0 
-137.595 -101.634 0 
-167.454 -98.2915 0 
-121.48 -98.8888 0 
-164.681 -75.527 0 
-164.085 -95.8311 0 
-134.729 -87.4142 0 
-166.891 -94.59 0 
-138.244 -99.9751 0 
-148.445 -99.4622 0 
-153.705 -92.7345 0 
-169.013 -96.4554 0 
-180.482 -91.1256 0 
-149.987 -101.905 0 
-158.022 -100.944 0 
-175.184 -114.258 0 
-168.994 -94.2479 0 
-159.128 -104.846 0 
-161.177 -127.607 0 
-157.052 -105.382 0 
-161.218 -110.377 0 
-171.26 -75.7624 0 
-143.791 -90.8062 0 
-112.695 -88.4606 0 
-174.237 -95.026 0 
-129.492 -122.207 0 
-127.369 -123.246 0 
-156.915 -132.664 0 
-95.548 -98.7615 0 
-155.039 -122.983 0 
-154.825 -84.7467 0 
-152.881 -124.357 0 
-110.439 -95.7186 0 
-110.005 -96.5145 0 
-104.639 -125.197 0 
-155.918 -100.545 0 
-142.742 -86.9194 0 
-132.223 -122.431 0 
-113.973 -136.457 0 
-121.589 -82.2748 0 
-165.873 -86.1579 0 
-113.73 -76.55 0 
-142.601 -111.809 0 
-126.075 -101.637 0 
-160.922 -110.494 0 
-104.908 -129.038 0 
-118.329 -130.533 0 
-97.422 89.9728 0 
-136.083 -109.003 0 
-127.208 -132.876 0 
-195.477 -144.696 0 
-109.266 -124.528 0 
-174.934 -103.076 0 
-162.787 -127.177 0 
-119.755 -133.728 0 
-165.789 -84.6168 0 
-150.827 -79.5251 0 
-163.636 -81.0265 0 
-135.983 -72.9836 0 
-168.465 -80.6867 0 
-154.971 -91.0461 0 
-145.775 -121.049 0 
-165.298 -63.9733 0 
-166.665 -105.536 0 
-84.606 -112.245 0 
-106.322 -134.263 0 
-135.58 -107.028 0 
-134.715 -109.213 0 
-141.172 -88.1754 0 
-126.629 -76.9433 0 
-94.9332 -125.553 0 
-101.119 -112.454 0 
-112.726 -124.447 0 
-153.417 -124.732 0 
-107.368 -122.896 0 
-159.671 -102.263 0 
-108.152 -118.615 0 
-154.937 -85.4644 0 
-115.261 -97.7234 0 
-128.511 -87.4584 0 
-151.321 -119.023 0 
-137.539 -89.7641 0 
-127.148 -95.6463 0 
-126.993 -70.806 0 
-170.109 -117.837 0 
-136.855 -91.2238 0 
-154.235 -120.675 0 
-98.9423 -96.6982 0 
-157.824 -100.306 0 
-141.621 -82.8816 0 
-142.011 -114.213 0 
-139.202 -99.1748 0 
-133.127 -95.3684 0 
-132.473 -46.1003 0 
-134.256 -74.7705 0 
-112.022 -92.5978 0 
-157.2 -83.5326 0 
-142.22 -117.762 0 
-128.713 -104.574 0 
-110.929 -131.963 0 
-93.4454 -66.835 0 
-170.031 -73.948 0 
-122.19 -128.293 0 
-140.109 -82.7974 0 
-150.962 -66.6644 0 
-143.785 -117.229 0 
-93.1237 107.901 0 
-94.8679 -100.391 0 
-112.968 -80.5504 0 
-106.462 -101.766 0 