<VTKFile type="UnstructuredGrid" version="0.1" byte_order="BigEndian">
  <UnstructuredGrid>
        <Piece NumberOfPoints="8000" NumberOfCells="0" Time= "0.075">      <Points>
        <DataArray name="Position" type="Float32"  NumberOfComponents= "3"  format="ascii">

112.082 21.8981 0 
114.546 13.6985 0 
113.047 12.3829 0 
114.472 13.8972 0 
112.929 12.3923 0 
114.429 13.7066 0 
112.963 12.441 0 
113.254 12.6727 0 
114.635 13.4821 0 
114.542 12.5706 0 
113.093 12.5627 0 
112.699 12.9171 0 
113.122 12.4368 0 
114.43 12.6674 0 
114.337 12.678 0 
113.083 12.6237 0 
113.089 12.6136 0 
113.122 14.1517 0 
114.282 13.1033 0 
113.457 12.2702 0 
114.559 13.7394 0 
113.323 12.3951 0 
114.577 13.6265 0 
114.553 13.7436 0 
113.643 14.1823 0 
113.235 12.5315 0 
112.904 12.4974 0 
112.761 12.7894 0 
114.594 13.6529 0 
114.76 12.6675 0 
113.672 14.1986 0 
114.556 13.9248 0 
113.419 12.54 0 
113.428 12.6022 0 
113.265 14.0089 0 
113.47 12.5984 0 
113.925 13.1792 0 
114.371 13.7475 0 
114.538 12.4465 0 
113.538 13.7537 0 
113.406 12.5443 0 
113.115 12.3702 0 
114.61 12.4296 0 
114.506 13.8768 0 
113.11 14.1513 0 
114.552 13.5632 0 
113.043 12.5345 0 
113.326 12.6034 0 
113.4 12.3655 0 
113.217 12.6314 0 
112.756 12.9143 0 
114.447 12.5525 0 
112.807 12.5717 0 
114.2 14.1524 0 
114.506 12.6641 0 
112.536 12.8697 0 
113.328 14.171 0 
113.077 12.1942 0 
113.043 14.3261 0 
113.246 13.9707 0 
113.316 14.6636 0 
112.548 12.7824 0 
114.245 12.5431 0 
113.957 13.0706 0 
113.318 13.8404 0 
113.754 15.9461 0 
114.115 16.8598 0 
114.659 15.6387 0 
114.527 16.0119 0 
114.402 16.4626 0 
113.15 16.5572 0 
114.662 16.6197 0 
113.671 14.9546 0 
114.682 16.1118 0 
113.054 16.5444 0 
113.292 16.0309 0 
114.594 15.8845 0 
113.688 17.5564 0 
114.783 15.4228 0 
114.714 15.6203 0 
114.111 17.1782 0 
113.481 17.0714 0 
113.399 15.6429 0 
112.57 16.6554 0 
113.656 15.8455 0 
113.193 16.438 0 
112.596 16.5327 0 
112.855 17.1486 0 
113.142 16.1375 0 
114.362 16.8583 0 
113.067 16.6477 0 
113.688 16.0514 0 
113.624 16.2223 0 
114.548 16.3492 0 
114.555 16.9011 0 
113.249 15.1727 0 
114.729 15.3664 0 
112.971 16.486 0 
114.108 16.5158 0 
114.605 15.6992 0 
113.029 16.6777 0 
114.372 16.2453 0 
114.186 17.4215 0 
113.277 16.8078 0 
114.705 16.0119 0 
114.693 15.7662 0 
114.746 16.3078 0 
113.176 16.6657 0 
114.65 17.0412 0 
113.972 16.9835 0 
114.301 16.5669 0 
113.29 16.2713 0 
113.364 16.705 0 
114.663 15.6388 0 
114.658 15.2777 0 
114.481 16.0993 0 
113.176 16.4881 0 
114.46 15.84 0 
113.857 16.1962 0 
113.132 16.6042 0 
113.258 16.31 0 
113.147 16.2729 0 
114.723 15.2364 0 
114.556 16.8082 0 
114.413 16.0521 0 
114.182 16.8771 0 
113.331 15.634 0 
113.696 16.6255 0 
113.783 16.1832 0 
114.069 16.7047 0 
113.061 16.6303 0 
114.659 15.2039 0 
112.872 16.5875 0 
113.468 16.0762 0 
114.683 17.0299 0 
114.658 15.374 0 
112.657 16.5524 0 
113.16 16.615 0 
114.557 15.6151 0 
114.607 15.6808 0 
113.028 16.6125 0 
113.218 15.9151 0 
112.59 16.6229 0 
113.668 15.9969 0 
114.495 15.9152 0 
113.932 17.0562 0 
114.574 16.1515 0 
113.52 16.1256 0 
113.731 16.1932 0 
113.61 15.9531 0 
113.067 16.6248 0 
114.043 16.796 0 
113.569 16.1879 0 
113.814 16.6948 0 
114.555 15.6022 0 
114.659 15.64 0 
113.634 15.8711 0 
114.768 15.5457 0 
114.661 16.6112 0 
114.545 16.2531 0 
114.649 15.5952 0 
114.67 16.257 0 
113.166 16.3633 0 
112.205 16.71 0 
113.816 17.404 0 
113.817 16.1745 0 
113.416 17.3309 0 
113.941 17.0676 0 
114.74 15.4278 0 
113.397 15.5594 0 
114.648 16.1173 0 
114.697 15.2422 0 
112.535 16.442 0 
114.627 16.3028 0 
114.536 16.4271 0 
114.61 17.234 0 
113.973 16.7017 0 
114.608 17.2433 0 
114.378 16.8749 0 
113.565 16.1348 0 
114.585 15.3514 0 
113.316 15.9881 0 
114.631 15.2121 0 
113.534 16.0202 0 
114.517 16.5582 0 
112.903 16.5691 0 
114.193 16.441 0 
114.547 16.5789 0 
113.026 16.6081 0 
114.609 16.2791 0 
114.401 16.3217 0 
114.311 17.2695 0 
112.22 16.7187 0 
114.518 16.5213 0 
114.769 15.4174 0 
114.779 16.4875 0 
113.951 16.8615 0 
113.602 16.7164 0 
114.153 16.1272 0 
113.154 16.5638 0 
113.823 16.1862 0 
113.944 17.096 0 
114.704 16.2304 0 
114.512 16.2924 0 
113.646 15.8737 0 
113.266 16.4554 0 
112.965 16.5484 0 
113.368 15.6722 0 
114.725 15.4143 0 
113.09 16.544 0 
114.576 15.3374 0 
114.435 15.7003 0 
113.226 16.389 0 
113.853 16.2161 0 
113.222 16.3153 0 
114.546 16.2744 0 
112.707 16.5725 0 
114.204 16.7162 0 
114.613 15.2927 0 
113.277 15.9187 0 
113.62 16.7806 0 
113.586 16.687 0 
113.368 15.7714 0 
114.194 16.9319 0 
113.284 16.7424 0 
113.318 15.9159 0 
113.201 16.2192 0 
114.074 16.2058 0 
114.423 16.268 0 
112.235 16.6809 0 
114.093 15.8638 0 
113.481 16.0166 0 
112.433 16.428 0 
114.578 16.2932 0 
114.662 16.8808 0 
114.194 16.4246 0 
113.715 16.7948 0 
114.644 16.2858 0 
113.961 16.6023 0 
114.591 15.8948 0 
113.11 16.1572 0 
113.5 16.0751 0 
114.068 16.4813 0 
114.269 16.5693 0 
112.608 16.3737 0 
114.641 16.2807 0 
114.622 15.6566 0 
114.2 16.4949 0 
114.584 16.5345 0 
114.205 16.9266 0 
112.587 16.375 0 
114.089 16.7096 0 
114.74 16.3059 0 
112.282 17.0904 0 
114.528 15.4793 0 
112.243 15.8667 0 
114.298 16.8022 0 
114.252 15.0959 0 
113.673 19.1151 0 
113.834 19.1744 0 
112.624 18.7493 0 
112.25 19.646 0 
114.172 19.1323 0 
112.761 18.7995 0 
112.717 18.2324 0 
113.466 17.7282 0 
112.44 18.1936 0 
113.264 19.0324 0 
113.481 18.3848 0 
112.539 18.9669 0 
113.789 19.5545 0 
113.274 18.9467 0 
113.422 18.7732 0 
114.52 18.899 0 
114.439 18.8119 0 
114.15 19.0898 0 
112.838 18.6004 0 
112.269 19.5735 0 
113.786 18.7039 0 
114.11 19.1143 0 
112.583 19.0243 0 
113.251 19.1498 0 
112.233 19.4305 0 
113.233 18.0815 0 
113.06 19.0117 0 
114.128 18.8053 0 
113.775 19.1959 0 
113.356 18.9105 0 
113.286 18.9498 0 
113.252 18.1948 0 
114.614 17.9844 0 
113.651 18.395 0 
112.88 18.6516 0 
114.725 18.6011 0 
112.727 18.1645 0 
114.123 18.74 0 
112.564 19.1291 0 
113.806 18.9705 0 
114.598 18.7403 0 
114.656 18.8974 0 
113.697 18.2788 0 
114.349 19.3865 0 
113.407 19.1634 0 
114.498 18.6726 0 
112.253 19.6166 0 
114.643 19.302 0 
113.566 19.1133 0 
114.288 18.9692 0 
112.792 18.9835 0 
112.817 19.0157 0 
112.895 18.9742 0 
113.149 17.939 0 
113.526 19.1488 0 
112.691 19.0836 0 
112.415 18.2723 0 
113.502 19.1103 0 
112.925 18.6084 0 
114.282 17.9348 0 
112.504 18.7062 0 
112.487 19.7766 0 
113.659 18.0724 0 
112.501 18.6195 0 
114.071 18.7602 0 
113.956 17.8712 0 
112.651 19.0397 0 
114.181 19.0376 0 
112.753 17.8157 0 
114.146 18.8846 0 
114.347 19.8175 0 
113.054 19.0672 0 
112.763 18.8205 0 
112.283 19.216 0 
114.148 19.1453 0 
113.326 18.7431 0 
114.507 17.9621 0 
113.676 19.1127 0 
114.265 19.8244 0 
113.738 18.2471 0 
112.719 18.2285 0 
113.219 17.8758 0 
113.473 19.1118 0 
114.384 17.4586 0 
114.281 19.3882 0 
113.232 17.8702 0 
114.434 17.419 0 
113.21 18.5797 0 
113.095 17.5021 0 
114.034 20.363 0 
114.537 21.3419 0 
114.498 21.0675 0 
114.413 21.1003 0 
114.523 21.4305 0 
114.572 21.3405 0 
114.46 21.103 0 
114.419 21.4267 0 
114.749 21.4128 0 
114.086 21.8713 0 
113.849 21.3387 0 
114.555 21.0714 0 
114.31 21.1911 0 
114.111 21.1265 0 
114.308 21.1796 0 
114.362 21.289 0 
114.186 21.2912 0 
114.199 21.1389 0 
114.618 21.2508 0 
114.524 21.3158 0 
114.48 21.2481 0 
114.356 21.3038 0 
114.389 21.9498 0 
114.705 21.9531 0 
114.459 21.2921 0 
113.653 21.3004 0 
114.418 21.3008 0 
114.453 21.108 0 
112.877 21.0425 0 
114.549 21.2916 0 
114.144 21.1494 0 
114.343 21.2196 0 
113.783 20.47 0 
114.368 21.4114 0 
114.474 21.3909 0 
114.332 21.0604 0 
114.433 21.0559 0 
115.563 14.0345 0 
117.165 13.2649 0 
114.703 12.3763 0 
115.833 13.3697 0 
116.702 13.5959 0 
116.379 13.2961 0 
115.591 13.3115 0 
115.612 13.4921 0 
116.816 14.0577 0 
115.705 13.0593 0 
115.839 13.5077 0 
116.365 13.2987 0 
115.833 13.3862 0 
116.668 12.284 0 
116.669 14.2697 0 
116.436 14.716 0 
115.868 13.4833 0 
117.035 13.2948 0 
115.722 13.5211 0 
117.002 14.2066 0 
115.27 13.3479 0 
114.976 12.5642 0 
116.813 12.3022 0 
115.936 13.3802 0 
115.247 12.2732 0 
116.514 14.6358 0 
115.168 13.4084 0 
115.757 13.6277 0 
115.111 12.3124 0 
116.281 12.7927 0 
115.177 13.5651 0 
115.354 13.5393 0 
115.71 14.171 0 
115.354 14.2342 0 
115.279 13.3046 0 
117.112 14.0792 0 
116.347 13.294 0 
115.962 13.3371 0 
115.399 12.247 0 
116.724 14.0449 0 
116.794 13.4024 0 
116.782 12.7931 0 
117.307 13.2779 0 
115.686 14.2489 0 
114.848 12.5692 0 
115.135 12.3514 0 
115.009 12.5114 0 
115.893 13.3858 0 
117.136 14.2082 0 
116.675 14.1954 0 
115.424 14.2126 0 
115.518 13.3246 0 
114.95 12.6716 0 
115.86 13.4558 0 
115.771 13.3872 0 
116.492 12.8415 0 
116.816 12.3311 0 
116.749 13.6764 0 
115.544 13.3108 0 
117.078 14.0242 0 
116.528 12.2087 0 
115.647 13.6338 0 
114.832 13.4813 0 
115.118 14.2056 0 
117.161 13.3529 0 
115.922 13.3623 0 
115.631 14.5499 0 
115.113 12.2782 0 
114.645 13.5192 0 
115.846 13.3764 0 
115.958 13.3373 0 
117.171 14.5701 0 
115.062 14.2284 0 
115.896 13.0394 0 
116.681 12.6554 0 
115.535 14.7078 0 
116.999 14.2678 0 
115.871 13.4157 0 
114.938 12.623 0 
115.727 13.3421 0 
117.119 12.8558 0 
115.87 13.6077 0 
116.806 14.0707 0 
116.778 13.6886 0 
116.737 14.2192 0 
116.83 14.2976 0 
117.1 14.1834 0 
117.157 14.0905 0 
115.926 13.4163 0 
114.969 13.4565 0 
116.801 13.3551 0 
115.962 13.2263 0 
116.963 14.2399 0 
115.849 13.4625 0 
116.099 13.4449 0 
114.837 12.6694 0 
116.851 12.7254 0 
116.415 12.7697 0 
115.907 13.4025 0 
115.761 13.5192 0 
115.351 14.1785 0 
116.86 12.2895 0 
115.422 13.5304 0 
115.541 13.4648 0 
115.861 13.3834 0 
116.875 14.2888 0 
115.95 13.3153 0 
116.502 13.4362 0 
116.686 14.3509 0 
115.278 13.3091 0 
114.921 14.5624 0 
116.489 12.5805 0 
115.666 13.5972 0 
116.934 13.2261 0 
115.714 13.4502 0 
116.644 12.207 0 
117.155 13.1169 0 
116.771 14.2296 0 
114.926 12.3929 0 
114.736 12.4717 0 
115.131 14.1942 0 
115.54 13.4486 0 
116.47 13.2953 0 
117.187 14.5483 0 
115.849 13.3922 0 
116.439 13.3851 0 
116.031 13.7092 0 
117.086 14.098 0 
116.486 14.5541 0 
116.917 14.2843 0 
115.92 13.3773 0 
115.732 13.39 0 
116.811 12.3227 0 
115.941 13.3511 0 
[...]
      <PointData Vectors="vector">
        <DataArray type="Float32" Name="Velocity" NumberOfComponents="3" format="ascii">

-74.5839 18.9136 0 
-74.0158 23.7448 0 
-74.037 22.869 0 
-52.5184 -9.84411 0 
-74.6612 -8.2264 0 
-74.1065 -10.8181 0 
-73.85 24.5242 0 
-72.2505 49.9285 0 
-74.0777 24.0292 0 
-74.1839 24.5594 0 
-74.0555 24.3762 0 
-72.0726 46.3475 0 
-50.1111 24.4072 0 
-74.1039 17.7672 0 
-69.307 69.713 0 
-74.2205 -65.1059 0 
-59.9799 -74.2315 0 
-40.7382 -74.8391 0 
-50.7684 -74.7693 0 
-54.3293 -74.6538 0 
-59.4579 -74.7323 0 
-56.7313 -73.8463 0 
-50.4918 -74.7237 0 
-74.1403 -55.9653 0 
-61.201 -72.9786 0 
-74.0605 -57.9423 0 
-56.1276 -69.0029 0 
-73.3713 -74.6762 0 
-59.4311 -72.323 0 
-64.6179 -74.8336 0 
-52.1595 -74.4472 0 
-47.191 -74.7983 0 
-66.8118 -28.5872 0 
-67.1972 -22.8398 0 
-43.9023 -16.8619 0 
-74.685 -26.545 0 
-74.3115 -63.3483 0 
-74.4929 -39.7657 0 
-74.1023 -61.9592 0 
-69.6828 -69.6602 0 
-60.446 -51.8482 0 
-26.2093 -46.0151 0 
-68.7959 -60.5149 0 
-74.7416 -54.7651 0 
-69.7971 -71.2174 0 
-69.8155 -70.4484 0 
-54.8033 -22.1611 0 
-40.266 -29.905 0 
-64.4105 -30.7474 0 
-74.4449 -23.3357 0 
-74.4347 -74.458 0 
-66.6887 -24.7518 0 
-36.9048 -31.08 0 
-61.134 -73.5847 0 
-26.294 -47.7193 0 
-74.7574 -38.1111 0 
-49.0628 -49.3971 0 
-64.029 -30.385 0 
-32.3368 -41.8536 0 
-74.5586 -33.9089 0 
-66.7922 -74.664 0 
-36.3409 -31.1304 0 
-65.251 -16.7655 0 
-59.5014 -66.7962 0 
-59.5085 -64.2741 0 
-54.8522 -23.5997 0 
-60.0118 -63.3806 0 
-54.4394 -36.3336 0 
-48.8667 -40.1051 0 
-74.7133 -27.8013 0 
-70.3974 -74.6253 0 
-41.0944 -35.9849 0 
-62.4164 -64.2043 0 
-70.7415 -63.9779 0 
-66.0785 -21.6734 0 
-54.8104 -22.345 0 
-74.4878 -33.3803 0 
-61.8878 -73.9016 0 
-61.9782 -71.1159 0 
-74.2614 -64.1713 0 
-61.1006 -51.4564 0 
-74.476 -54.1306 0 
-67.8862 -74.6046 0 
-49.7144 -72.5291 0 
-73.0296 -12.8138 0 
-66.7415 -62.5242 0 
-74.8171 -42.5387 0 
-34.1651 -45.9414 0 
-61.9176 -59.9061 0 
-40.5069 -58.7655 0 
-59.553 -23.4631 0 
-20.3089 -28.358 0 
-69.8159 -46.8114 0 
-44.6022 -52.8347 0 
-54.8492 -36.601 0 
-63.7813 -20.0169 0 
-72.5672 -16.9167 0 
-49.56 0.755852 0 
-46.2551 -33.5388 0 
-53.6142 -12.6794 0 
-64.4081 6.41215 0 
-38.9076 6.00267 0 
-64.4666 12.1904 0 
-44.1979 -24.6144 0 
-19.7842 19.8314 0 
-31.6011 -11.5676 0 
-51.7311 10.1886 0 
-74.4517 -9.56525 0 
-45.4902 -42.5743 0 
-48.8924 -32.8846 0 
-72.9391 -4.95903 0 
-42.3672 15.294 0 
-74.2166 -54.4408 0 
-45.989 -39.5326 0 
-46.1868 14.7152 0 
-72.0682 -28.6107 0 
-36.0169 12.7838 0 
-58.183 -40.331 0 
-71.3116 -30.3554 0 
-53.0894 -30.9547 0 
-48.9122 4.83263 0 
-38.4833 -5.72525 0 
-38.7123 -0.497501 0 
-73.5597 5.94941 0 
-16.2746 5.38166 0 
-63.362 9.6245 0 
-39.802 -43.6868 0 
-58.9992 4.91092 0 
-20.4579 4.74691 0 
-43.2122 -10.1365 0 
-74.3233 -24.6593 0 
-55.0021 -23.1614 0 
-63.5906 11.0198 0 
-66.0888 -13.9561 0 
-43.5385 7.50682 0 
-24.9999 -37.9835 0 
-56.6962 -45.0532 0 
-23.4876 0.320932 0 
-67.7219 -1.59383 0 
-74.5106 -24.8384 0 
-64.9829 -9.71079 0 
-21.3053 5.72205 0 
-64.8944 -55.9446 0 
-50.3613 14.0088 0 
-28.5308 0.606783 0 
-36.519 -9.29674 0 
-55.6321 -20.878 0 
-48.637 11.5897 0 
-35.4542 6.70892 0 
-55.4557 -54.0377 0 
-48.1062 11.2722 0 
-73.4874 -34.9242 0 
-69.1692 -51.1934 0 
-53.0869 -18.2644 0 
-56.4747 -24.1553 0 
-74.0899 -50.1045 0 
-60.4001 0.0239084 0 
-49.0269 -31.5009 0 
-69.2389 -50.7322 0 
-46.6394 -41.8203 0 
-73.9296 5.15673 0 
-60.9654 -3.86521 0 
-61.6948 -58.7261 0 
-47.3105 -1.4927 0 
-36.1964 10.5528 0 
-62.815 10.6096 0 
-51.1026 -13.935 0 
-62.2906 -7.18879 0 
-66.2727 -0.00223373 0 
-22.8112 -2.23136 0 
-21.9114 18.2881 0 
-23.9636 4.11332 0 
-55.5534 -49.8052 0 
-74.1134 -54.9276 0 
-57.2672 -7.91069 0 
-47.7445 -10.7194 0 
-51.4136 8.70732 0 
-58.5739 -41.4761 0 
-61.8169 -4.77064 0 
-64.7855 -13.104 0 
-51.0459 -8.88082 0 
-20.2337 12.306 0 
-54.3373 -52.3928 0 
-73.9708 -54.3822 0 
-55.6141 -44.9146 0 
-37.2706 -3.33821 0 
-72.8511 -28.0075 0 
-74.3932 -25.2622 0 
-44.8839 -40.9806 0 
-64.6372 3.47012 0 
-51.4776 -49.0753 0 
-49.2609 -14.7931 0 
-38.875 16.6713 0 
-43.6487 -54.6821 0 
-48.911 -34.3359 0 
-73.2592 0.967526 0 
-44.7348 -34.1724 0 
-27.4496 -5.094 0 
-26.4626 -10.0676 0 
-40.3362 14.2039 0 
-63.0442 -30.2565 0 
-73.6928 -18.3871 0 
-74.3074 -9.65332 0 
-45.0741 16.3705 0 
-53.3827 -18.766 0 
-72.7454 -22.845 0 
-70.9021 8.08539 0 
-66.5515 -14.3849 0 
-73.498 -29.6956 0 
-20.2047 12.1794 0 
-49.5801 -1.6727 0 
-72.6952 -20.8337 0 
-58.2444 -3.1086 0 
-72.9382 -33.3604 0 
-48.4479 -34.4419 0 
-47.2101 -29.6839 0 
-74.1221 13.4553 0 
-73.9822 -21.4365 0 
-47.8875 -37.1666 0 
-73.2284 0.544503 0 
-68.7903 1.08129 0 
-64.348 3.65501 0 
-71.6453 10.6053 0 
-46.0933 -33.2655 0 
-65.7172 10.671 0 
-25.6551 3.95719 0 
-64.0611 3.8384 0 
-74.3603 -31.7187 0 
-64.7048 5.24484 0 
-44.2886 17.5115 0 
-61.0457 -13.5406 0 
-68.4614 -10.5429 0 
-41.794 15.9558 0 
-45.2061 16.7573 0 
-45.3193 -44.283 0 
-65.6171 14.2397 0 
-50.7331 -38.6756 0 
-44.5207 -24.8812 0 
-55.1963 -49.7125 0 
-47.1212 -7.40537 0 
-61.8889 13.2162 0 
-62.8926 14.3314 0 
-49.2237 -37.3221 0 
-64.3816 -34.6509 0 
-56.218 -45.2202 0 
-60.8367 -12.1021 0 
-49.44 -36.8019 0 
-47.2657 7.96724 0 
-72.8766 -23.4065 0 
-64.6085 -46.7931 0 
-29.4734 -15.2052 0 
-74.5349 -54.3334 0 
-72.6617 -29.6977 0 
-72.4645 0.424948 0 
-57.3681 -6.38673 0 
-31.4547 -0.630274 0 
-71.9373 -20.6723 0 
-64.3505 12.1469 0 
-30.2447 -0.144111 0 
-63.3853 1.28217 0 
-63.5792 10.8087 0 
-64.938 -53.1844 0 
-48.4802 9.94235 0 
-64.4705 11.4385 0 
-63.6586 -9.92287 0 
-44.8666 -42.7963 0 
-45.1627 -51.221 0 
-49.4126 15.4875 0 
-59.4478 -2.75479 0 
-69.6857 -23.6236 0 
-21.1735 3.49059 0 
-31.1606 -6.27988 0 
-73.6971 -0.0710796 0 
-57.5578 -9.96727 0 
-45.3977 17.9477 0 
-51.2734 -55.2409 0 
-63.3042 10.2835 0 
-58.8657 0.555716 0 
-73.9917 -21.1644 0 
-33.7289 5.35273 0 
-74.2702 -4.9913 0 
-47.6485 -44.6293 0 
-26.3278 1.9016 0 
-51.4159 -40.0481 0 
-58.2382 -0.00718287 0 
-55.508 -42.5604 0 
-19.8578 18.1077 0 
-60.371 -51.8154 0 
-74.0703 0.381073 0 
-51.9488 -39.2746 0 
-23.5106 22.915 0 
-41.4445 -52.6141 0 
-63.211 -9.48646 0 
-67.1502 -7.3802 0 
-13.0204 9.14479 0 
-71.8722 10.6313 0 
-61.8168 10.5452 0 
-54.0797 -17.7622 0 
-40.5696 -7.45912 0 
-68.7953 -4.3313 0 
-64.6072 -47.8984 0 
-25.5255 -12.885 0 
-64.1303 4.05932 0 
-62.8827 -2.14164 0 
-54.3811 -19.6243 0 
-44.6872 -32.3329 0 
-51.0906 7.53242 0 
-32.04 -3.4594 0 
-28.006 -14.8491 0 
-29.6317 3.3016 0 
-52.4082 -10.8094 0 
-64.6542 -33.4212 0 
-74.2514 8.76373 0 
-71.4464 -40.8446 0 
-53.163 16.6817 0 
-72.2278 -30.7174 0 
-69.3345 -30.2902 0 
-63.5055 10.853 0 
-46.5956 -54.2766 0 
-71.7941 -21.2101 0 
-63.1312 2.75984 0 
-66.2776 10.8074 0 
-63.25 4.7936 0 
-51.2376 -3.65454 0 
-64.5826 -2.36854 0 
-42.2119 -36.7907 0 
-19.6325 4.99476 0 
-72.8701 -23.0608 0 
-46.2759 -46.644 0 
-69.6402 -2.8605 0 
-64.2511 -28.3972 0 
-62.7809 1.69167 0 
-41.2097 -29.4878 0 
-66.5445 10.7846 0 
-70.6736 -7.8059 0 
-66.2582 -29.2449 0 
-74.5027 -14.1011 0 
-47.0898 2.18017 0 
-60.7984 7.98815 0 
-49.3944 10.6354 0 
-67.9284 -9.66795 0 
-44.8032 -21.6829 0 
-68.051 2.33273 0 
-46.9149 -55.5736 0 
-45.4634 -51.107 0 
-73.906 8.82337 0 
-53.5432 -44.1248 0 
-62.4732 1.96607 0 
-52.1798 -35.6253 0 
-24.2796 15.2021 0 
-29.9667 -15.3957 0 
-72.276 68.9827 0 
-26.9574 -3.93611 0 
-72.1057 72.4818 0 
-67.2291 56.211 0 
-42.0231 36.8662 0 
-36.6884 72.4721 0 
-29.0527 56.2023 0 
-72.1783 69.8322 0 
-34.147 -10.5203 0 
-36.8188 72.487 0 
-36.7698 66.3206 0 
-54.1616 24.5719 0 
-65.5685 12.5333 0 
-26.9825 7.83618 0 
-67.439 67.4298 0 
-22.2007 64.5677 0 
-28.9249 8.98062 0 
-72.2506 72.4741 0 
-36.2516 72.4735 0 
-42.1334 45.0801 0 
-61.5545 72.4953 0 
-74.8255 17.903 0 
-29.1348 -12.607 0 
-36.8417 71.2912 0 
-36.7931 72.4565 0 
-42.3012 46.1368 0 
-56.6603 -20.3203 0 
-30.0787 53.3586 0 
-67.1399 67.4885 0 
-57.1249 10.7578 0 
-53.103 6.69623 0 
-63.312 45.839 0 
-56.7708 11.6475 0 
-74.8279 17.0509 0 
-72.1249 72.4777 0 
-57.3855 11.8292 0 
-28.8758 -11.376 0 
-58.0775 22.2002 0 
-51.3139 21.6848 0 
-36.1317 44.8639 0 
-56.0958 1.17545 0 
-62.281 7.55212 0 
-26.0307 69.449 0 
-65.0882 16.7297 0 
-56.2734 -1.21292 0 
-26.332 70.587 0 
-74.4178 -0.147094 0 
-71.3109 66.1077 0 
-71.9329 72.4988 0 
-71.651 72.4979 0 
-50.6295 37.3303 0 
-26.2788 71.6291 0 
-72.0476 72.474 0 
-26.5063 72.3343 0 
-67.144 67.2571 0 
-65.7566 -37.7598 0 
-72.1436 61.721 0 
-35.0472 42.8328 0 
-72.2367 63.6296 0 
-68.9932 13.008 0 
-35.4762 22.9806 0 
-72.2177 72.4747 0 
-24.8759 -9.57354 0 
-61.8654 34.1161 0 
-62.0081 24.821 0 
-63.7323 9.05888 0 
-61.0671 67.877 0 
-72.0794 72.4801 0 
-27.3288 9.93975 0 
-36.9128 69.0783 0 
-49.4393 -8.36658 0 
-64.9152 -18.9105 0 
-24.1651 15.2819 0 
-11.2741 19.3016 0 
-53.6045 31.387 0 
-36.5031 49.8127 0 
-67.2285 55.7645 0 
-50.4909 40.3259 0 
-26.6263 72.4499 0 
-63.7578 11.0133 0 
-51.0931 38.5599 0 
-56.6784 6.78352 0 
-46.9952 65.8965 0 
-43.1465 23.3685 0 
-58.4161 -15.2403 0 
-66.6278 57.3406 0 
-72.2768 11.2164 0 
-50.8573 57.2581 0 
-54.1243 42.6721 0 
-66.7267 57.3168 0 
-71.1628 52.0773 0 
-70.7918 52.8723 0 
-71.1743 49.5936 0 
-71.6482 42.9713 0 
-70.7597 57.1026 0 
-70.9391 52.506 0 
-71.9703 42.4518 0 
-49.3428 51.9427 0 
-70.6826 51.931 0 
-27.6545 71.6601 0 
-67.1293 54.5561 0 
-53.5239 54.0037 0 
-71.9086 46.8137 0 
-72.3223 47.4754 0 
-71.9108 46.8457 0 
-66.6517 57.3858 0 
-72.0049 41.5336 0 
-72.3216 42.4436 0 
-63.4291 46.6435 0 
-67.0956 57.4454 0 
-56.4916 57.0904 0 
-70.955 56.2178 0 
-71.1063 55.9587 0 
-66.8462 57.3951 0 
-67.0449 57.4582 0 
-57.9448 46.3887 0 
-72.0556 72.3389 0 
-54.7782 72.2136 0 
-56.8213 47.7537 0 
-71.0175 55.24 0 
-71.8595 41.6752 0 
-70.9729 52.4749 0 
-61.5122 71.934 0 
-71.4798 52.256 0 
-22.0392 17.137 0 
-54.2152 43.9875 0 
-70.8372 51.9643 0 
-72.2487 47.4486 0 
-71.8277 46.204 0 
-72.134 11.2325 0 
-71.2496 52.1478 0 
-72.0781 42.4184 0 
-71.7689 42.8991 0 
-61.4353 61.8072 0 
-62.1967 72.0525 0 
-71.6893 43.9131 0 
-71.0426 52.5277 0 
4.021 -73.9409 0 
7.30599 -74.241 0 
-44.2437 -67.9234 0 
-52.3083 -68.4029 0 
-43.5001 -74.6272 0 
-45.9045 -74.7264 0 
7.46949 -74.2541 0 
3.50299 -74.3706 0 
-53.0668 -66.2419 0 
7.63893 -74.3891 0 
-17.2132 -74.5737 0 
7.30116 -74.2901 0 
-57.1383 -74.3254 0 
-27.4431 -69.6196 0 
-36.2067 -20.2069 0 
-55.2081 -50.2675 0 
-25.107 -56.5967 0 
-19.7695 -18.7271 0 
-41.4772 -64.8062 0 
-50.6626 -36.6086 0 
-49.3893 -49.9714 0 
-57.79 -19.9971 0 
-63.7342 -71.9222 0 
-67.4479 -49.829 0 
-54.9359 -54.8219 0 
-41.6227 -52.8801 0 
-42.9228 -38.3744 0 
-50.2896 -36.1065 0 
-63.1611 -56.0622 0 
-43.5507 -52.0023 0 
-60.3027 -63.4043 0 
-61.3407 -46.0797 0 
-43.0287 -51.5519 0 
-48.1852 -67.7079 0 
-36.2 -20.7221 0 
-54.883 -20.0134 0 
-52.4583 -65.1956 0 
-25.728 -73.6069 0 
-64.7014 -30.6768 0 
-27.4684 -74.2224 0 
-22.3371 -74.1793 0 
-29.3156 -61.9616 0 
-51.24 -22.4261 0 
-15.5298 -59.5848 0 
-50.3403 -38.5756 0 
-48.2274 -20.2593 0 
-49.4038 -55.6353 0 
-51.2164 -25.7236 0 
-37.4212 -74.3256 0 
-19.8672 -74.2918 0 
-18.3213 -74.5111 0 
-26.8699 -74.2282 0 
-47.6932 -25.8686 0 
-17.7032 -66.0631 0 
-30.9509 -71.3392 0 
-60.9177 -42.1421 0 
-62.8877 -58.2586 0 
-53.9677 -72.8636 0 
-48.4335 -28.2096 0 
-22.6302 -50.3541 0 
-28.7406 -74.6003 0 
-62.8979 -68.7389 0 
-17.82 -16.4359 0 
-47.6887 -57.4586 0 
-31.8169 -20.2877 0 
-21.1845 -63.5181 0 
-55.1178 -74.7815 0 
-46.1206 -44.9157 0 
-46.4361 -68.93 0 
-58.647 -63.5738 0 
-32.139 -68.0525 0 
-54.3211 -42.8009 0 
-45.3941 -42.7438 0 
-51.5976 -49.9929 0 
-27.3336 -62.6014 0 
-36.7651 -55.6379 0 
-5.31317 -62.3435 0 
-21.6656 -5.92416 0 
-54.7987 -40.4774 0 
-32.3915 -59.5116 0 
-64.9875 -46.0511 0 
-42.5264 -22.4054 0 
-55.1056 -71.141 0 
-55.2703 -22.6287 0 
-56.7698 -74.4936 0 
-58.5292 -39.7039 0 
-20.8769 -38.7526 0 
-23.1541 -59.1863 0 
-55.8904 -50.7044 0 
-52.3162 -41.5497 0 
-54.9654 -62.1388 0 
-60.3068 -62.9116 0 
-62.2983 -73.6935 0 
-41.0778 -54.7944 0 
-45.3893 -20.5924 0 
-19.592 -63.6711 0 
-33.5834 -55.8893 0 
-48.2411 -63.8753 0 
-49.959 -22.7536 0 
-44.9311 -42.7346 0 
-15.0172 -53.405 0 
-34.6707 -30.5009 0 
-64.1078 -26.1889 0 
-62.2029 -71.7723 0 
-17.3186 -26.6132 0 
-49.6154 -44.407 0 
-59.4595 -60.6245 0 
-55.5373 -57.9425 0 
-48.0277 -70.3055 0 
-65.1518 -36.8465 0 
-50.9304 -72.7048 0 
-21.4346 -70.4661 0 
-22.1431 -50.5988 0 
-45.8438 -20.4674 0 
-49.4544 -69.7465 0 
-50.4719 -56.5966 0 
-72.1383 -27.8357 0 
-51.6363 -40.0563 0 
-53.4157 -54.2235 0 
-44.9979 -31.3541 0 
-44.0081 -27.054 0 
-50.2266 -59.9101 0 
-52.5527 -54.7749 0 
-42.0699 -41.6149 0 
-37.6892 -74.2871 0 
-56.2951 -54.5873 0 
-54.9393 -31.6201 0 
-54.2722 -72.6642 0 
-38.7168 -69.7812 0 
-64.9686 -20.0795 0 
-64.8006 -19.9939 0 
-29.9369 -74.2425 0 
-66.6603 -61.2638 0 
-55.2972 -57.2683 0 
-44.7333 -40.3892 0 
-8.994 -33.7505 0 
-56.2732 -63.666 0 
-59.3599 -44.2661 0 
-63.8835 -59.6229 0 
10.9113 -74.361 0 
-55.1432 -28.2444 0 
-64.4824 -30.6578 0 
-21.57 -74.1119 0 
-48.3932 -29.4327 0 
-55.7267 -44.8659 0 
-59.7801 -64.3684 0 
-55.7608 -74.6627 0 
-64.8064 -19.994 0 
-52.9992 -33.9411 0 
-55.3763 -65.3159 0 
-53.2273 -46.8815 0 
-30.3198 -30.9481 0 
-15.7863 -55.7576 0 
-61.4484 -72.5566 0 
-70.1588 -63.3729 0 
-61.8649 -39.7476 0 
-54.76 -55.1619 0 
-50.7289 -24.1968 0 
-45.2689 -34.7748 0 
-55.3121 -47.6281 0 
-19.0352 -20.7064 0 
-53.301 -53.9119 0 
-34.4018 -36.9988 0 
-64.807 -19.9931 0 
-62.8488 -31.0749 0 
-24.1467 -32.5615 0 
-45.9679 -33.0967 0 
-69.7759 -52.8935 0 
-48.3288 -55.0674 0 
-31.7659 -57.5191 0 
-60.1079 -34.3921 0 
-35.0625 -67.4516 0 
-16.5623 -46.2522 0 
-49.2298 -71.7943 0 
-27.6646 -74.2186 0 
-45.2319 -19.976 0 
-51.8444 -49.9673 0 
-36.3528 -55.0415 0 
-17.4953 -29.5965 0 
-60.6653 -60.8078 0 
-48.2458 -40.2689 0 
-26.6735 -74.2387 0 
-52.4904 -54.0102 0 
-53.5893 -71.1938 0 
-4.8595 -48.2927 0 
-30.24 -61.5203 0 
-63.7888 -13.7991 0 
-53.5979 -47.9722 0 
-26.9036 -37.6667 0 
-56.6133 -52.9637 0 
-49.7189 -65.2025 0 
-19.3478 -45.7631 0 
-30.6666 -55.2316 0 
-53.0223 -52.9757 0 
9.3751 -48.4448 0 
-51.9845 -30.0019 0 
-58.2963 -2.42217 0 
-69.5174 27.6336 0 
-28.9917 17.0737 0 
-69.522 4.82481 0 
0.774308 -21.1612 0 
-17.9935 -33.1348 0 
-33.5665 7.52077 0 
-46.5188 -20.8387 0 
-31.6905 5.84521 0 
12.9391 -20.2429 0 
-73.0868 -1.60899 0 
-69.6538 -18.1575 0 
-68.5983 -43.5523 0 
-35.9863 -23.7988 0 
-60.5349 -10.0189 0 
-8.94472 18.0282 0 
-36.1393 -0.486814 0 
-71.7664 -29.8471 0 
-2.45495 10.3869 0 
-21.58 15.1678 0 
-50.3336 -48.9123 0 
-2.29512 10.321 0 
-26.1861 -21.265 0 
-64.5706 -30.3003 0 
-2.86275 10.3865 0 
-4.17547 -23.4339 0 
-38.4008 -55.1751 0 
-71.1102 -25.2146 0 
-49.8749 -30.6447 0 
-26.5866 16.7395 0 
-64.2969 -33.2151 0 
4.35791 -14.0211 0 
-22.9155 9.82138 0 
-38.5894 -34.9816 0 
-35.9472 -37.3448 0 
-21.9103 19.3481 0 
-24.9247 16.6406 0 
-17.7907 19.8917 0 
-45.789 4.52692 0 
-54.8058 -18.8942 0 
-14.0349 -16.3746 0 
-46.2268 16.6225 0 
-50.4206 0.200879 0 
-21.0931 -1.08353 0 
-38.7378 15.4116 0 
-60.1381 -22.5103 0 
-65.6369 -2.19885 0 
-14.5388 14.7296 0 
-73.5893 -41.307 0 
-12.263 -29.3298 0 
-48.3269 -28.924 0 
-44.065 -21.8054 0 
-42.2283 -25.8758 0 
-73.7921 5.05827 0 
-55.271 -47.7638 0 
-60.2818 1.85539 0 
-67.3003 10.6621 0 
-74.0081 -16.3096 0 
-66.2342 -32.6542 0 
-48.456 -38.3893 0 
-27.253 17.3119 0 
-56.7159 -65.2098 0 
-29.0575 -18.104 0 
-41.1951 -35.3746 0 
-29.312 -39.3607 0 
-22.6996 9.2334 0 
-61.4019 12.6835 0 
-64.9873 -35.605 0 
-23.6393 -39.8949 0 
-64.6589 -9.13421 0 
-16.6729 -36.6114 0 
-10.774 10.2825 0 
-63.4355 -4.44679 0 
-24.8169 15.9955 0 
-17.3181 -21.1909 0 
-51.0239 -2.40025 0 
-44.2284 -50.6708 0 
-35.5005 -43.2637 0 
-19.782 34.8503 0 
-41.1669 18.0388 0 
-55.3019 -30.3318 0 
-69.0694 -15.5398 0 
-73.6427 -2.97631 0 
-68.9999 -42.4841 0 
-68.9965 -42.0716 0 
-68.0999 -31.0756 0 
-29.1398 -17.215 0 
-57.0389 -22.0127 0 
-69.0818 -38.4381 0 
-0.965902 -10.7634 0 
-33.6593 -7.58333 0 
-21.1658 14.4669 0 
-53.6025 -42.2605 0 
-32.1771 -4.72849 0 
-17.7109 -32.3473 0 
-67.768 -12.8344 0 
-69.6908 -25.8933 0 
-66.383 -28.4108 0 
-27.6791 7.63294 0 
-54.9993 -30.2298 0 
-65.5077 -1.60466 0 
-23.3711 9.89972 0 
-64.7917 -46.4229 0 
-63.9071 15.0893 0 
-59.8215 -32.1484 0 
-11.3315 12.6977 0 
-64.9621 -7.39518 0 
-41.5736 2.64895 0 
-44.9831 -19.6922 0 
-68.7114 -29.9444 0 
-10.1564 20.1106 0 
-32.5234 -50.1198 0 
-4.96244 -30.3746 0 
-7.35906 23.1631 0 
-35.2975 -14.193 0 
-25.8007 14.2452 0 
-24.1985 -27.4466 0 
-56.0368 -13.2678 0 
-54.6729 -5.69998 0 
-63.1003 9.12313 0 
-50.4028 -44.4631 0 
-35.833 0.619206 0 
-10.3305 -32.1441 0 
-30.8847 -3.44757 0 
-59.9745 -12.7997 0 
-3.49109 -13.7585 0 
-26.8033 5.63347 0 
-6.7494 -23.8589 0 
-43.8886 -10.6995 0 
-7.25155 -10.2309 0 
-24.5103 -23.13 0 
-60.7232 -9.59008 0 
-35.8919 -24.1577 0 
-33.6643 11.5364 0 
-67.6324 2.0414 0 
-66.6078 0.909632 0 
-64.3131 -24.6854 0 
-11.2999 17.0217 0 
-45.0516 17.6099 0 
-29.4332 -26.7324 0 
10.5294 -45.1966 0 
-47.0984 -25.9066 0 
-3.57558 -23.4169 0 
-70.0043 -13.3295 0 
-22.6405 -20.1567 0 
-69.4457 21.4549 0 
2.44155 -31.9825 0 
3.20959 -45.5147 0 
-65.0818 -26.4554 0 
-18.2946 11.6086 0 
-27.2626 -14.4104 0 
-73.7011 0.780321 0 
-46.0629 -56.7264 0 
11.3845 10.2734 0 
-60.534 -30.0306 0 
-4.26089 -28.1313 0 
-66.4262 -30.0617 0 
-68.6102 -10.6191 0 
-57.3854 -33.0497 0 
-44.9907 -20.2761 0 
-70.4965 1.34257 0 
19.4594 -41.7153 0 
-19.8965 21.2159 0 
-0.399912 -17.3411 0 
-54.7913 -30.5489 0 
-20.3776 10.7881 0 
-69.5355 -44.836 0 
-24.7456 -26.8201 0 
-12.7733 -17.2205 0 
-15.1391 17.9767 0 
-27.9287 2.91234 0 
-65.0175 -39.9445 0 
-69.7345 -34.0655 0 
-31.5051 -37.0154 0 
-58.0246 -6.17076 0 
-16.6171 -30.0034 0 
-21.6261 17.4061 0 
-7.40778 -30.0551 0 
-46.3356 -19.3001 0 
-23.113 -8.60538 0 
-68.1675 1.54816 0 
-37.4548 -7.09864 0 
-59.5669 2.89175 0 
-9.69778 -28.7181 0 
-45.5908 3.27027 0 
-22.1856 -10.1798 0 
-69.1617 -4.14381 0 
-69.3507 10.1135 0 
-64.4107 -8.33616 0 
-70.1629 2.15889 0 
-17.918 6.14892 0 
-50.955 -35.0454 0 
-43.42 -28.2202 0 
-41.6282 -6.68358 0 
-67.669 -55.1345 0 
-71.8014 -18.1018 0 
-51.2418 1.21902 0 
-56.2887 -41.1512 0 
-68.8512 -33.2337 0 
-30.1501 18.5546 0 
-3.77691 -22.2241 0 
-20.6476 -19.9162 0 
-74.2943 -38.4131 0 
-35.3594 -32.0909 0 
-70.3771 5.31996 0 
-64.8063 -18.9197 0 
-27.505 -39.5702 0 
-24.8396 -38.1371 0 
-27.7195 -38.3581 0 
9.50883 -41.3479 0 
-47.589 16.471 0 
-60.4348 -39.5624 0 
-58.6233 6.50958 0 
-12.3013 10.2526 0 
-73.9607 -38.9353 0 
-59.524 -9.29221 0 
-23.6428 22.3893 0 
-17.6007 2.15056 0 
-69.0543 -32.4857 0 
-25.0747 -39.7647 0 
-51.632 -36.9923 0 
23.465 -30.5591 0 
-64.9282 -34.509 0 
-22.6548 14.4457 0 
-11.4577 -39.2944 0 
-68.7225 -42.1441 0 
-55.8452 -35.4264 0 
21.1567 -28.5302 0 
-14.9615 -25.1201 0 
-43.6585 -11.0008 0 
-54.493 3.84577 0 
-37.9533 -29.9813 0 
-67.1845 -3.29507 0 
-22.3212 -7.58987 0 
-42.5994 -34.9719 0 
-56.7599 -9.51257 0 
-41.8795 -27.406 0 
-22.2014 -52.9939 0 
-35.756 -51.6726 0 
-33.1786 14.1165 0 
-21.1672 11.7254 0 
-14.7892 -26.7797 0 
-14.3447 17.5212 0 
-19.4567 37.3607 0 
-19.712 -13.6002 0 
-38.0985 -43.8539 0 
-23.0921 3.2474 0 
-26.9475 -34.0368 0 
-52.0725 -9.69002 0 
19.3198 -45.8759 0 
-42.9758 13.2103 0 
-71.3131 -25.583 0 
-47.8799 -18.1939 0 
-62.2085 -19.6616 0 
-49.1567 -30.3299 0 
-69.8779 9.82438 0 
-40.0164 -45.7265 0 
-9.70845 -14.9368 0 
-19.1863 16.8796 0 
-7.66292 -20.6066 0 
-24.5066 19.4307 0 
-24.8752 11.9359 0 
-22.5113 10.5156 0 
-57.5231 -33.9026 0 
-30.1622 -1.88884 0 
-13.1244 0.565887 0 
-64.5271 16.583 0 
-69.7755 6.68381 0 
-54.6651 0.637236 0 
-17.2522 -14.84 0 
-29.0001 -27.8572 0 
-34.6728 -7.38838 0 
2.75214 -46.5171 0 
-33.8345 -4.70972 0 
-70.2737 -23.9847 0 
-27.0995 -28.3072 0 
-3.87594 13.6105 0 
-48.7027 -62.1834 0 
-40.2822 23.6752 0 
-39.955 -10.0609 0 
-20.501 15.3073 0 
-9.52281 29.0344 0 
-22.1104 14.1238 0 
-46.5075 -0.149149 0 
-68.9206 -31.8966 0 
-26.4752 -29.6402 0 
-60.0355 -9.46809 0 