<VTKFile type="UnstructuredGrid" version="0.1" byte_order="BigEndian">
  <UnstructuredGrid>
        <Piece NumberOfPoints="8000" NumberOfCells="0" Time= "0.01">      <Points>
        <DataArray name="Position" type="Float32"  NumberOfComponents= "3"  format="ascii">

114.951 15.0355 0 
114.955 18.8086 0 
114.951 18.9469 0 
114.95 17.608 0 
116.359 16.0542 0 
115.401 16.5272 0 
116.993 17.4495 0 
115.127 15.1281 0 
116.238 16.3224 0 
116.447 15.7633 0 
115.794 15.7463 0 
116.616 15.2703 0 
117.087 15.971 0 
116.276 16.5538 0 
115.093 15.67 0 
116.384 16.5682 0 
116.415 15.6325 0 
115.706 16.205 0 
117.27 17.2533 0 
115.298 15.8705 0 
115.999 15.2536 0 
115.49 16.22 0 
116.261 15.1459 0 
115.647 15.9158 0 
115.719 17.296 0 
115.667 16.0477 0 
116.038 15.7946 0 
116.923 15.3845 0 
115.866 17.1781 0 
115.721 15.487 0 
116.386 15.2067 0 
117.056 17.4347 0 
115.296 15.0843 0 
115.53 17.4012 0 
116.601 15.8979 0 
115.782 16.5808 0 
116.115 15.5078 0 
117.213 15.6908 0 
115.993 16.8417 0 
116.521 15.0931 0 
117.374 16.7569 0 
116.533 16.4856 0 
116.526 17.4289 0 
116.865 16.086 0 
115.698 16.2921 0 
115.764 15.5191 0 
116.468 16.6651 0 
115.51 16.0546 0 
117.388 15.5493 0 
116.512 16.8394 0 
115.686 16.556 0 
117.441 16.9953 0 
116.073 15.7345 0 
116.052 16.2345 0 
114.984 16.1544 0 
115.363 15.1684 0 
115.194 17.2066 0 
116.863 17.1547 0 
116.736 15.7264 0 
116.714 15.9218 0 
115.538 16.632 0 
115.912 16.8207 0 
116.625 16.7612 0 
116.779 15.9124 0 
115.707 16.8138 0 
115.522 16.3083 0 
115.738 15.5149 0 
117.141 15.7441 0 
115.766 15.5791 0 
117.142 16.9775 0 
116.608 16.5212 0 
117.043 16.2624 0 
116.414 15.9359 0 
116.854 15.7015 0 
117.027 16.5274 0 
116.872 16.2936 0 
116.897 16.538 0 
116.332 15.2085 0 
115.97 15.8804 0 
116.106 16.8556 0 
117.32 16.597 0 
115.417 16.5121 0 
116.269 15.2792 0 
115.91 16.5047 0 
115.361 16.0546 0 
115.506 16.4537 0 
116.35 16.457 0 
117.33 16.622 0 
114.965 16.8806 0 
116.414 16.7701 0 
116.992 16.2668 0 
116.438 17.4479 0 
115.451 16.6456 0 
116.571 16.1846 0 
115.939 15.9785 0 
115.418 15.2919 0 
116.386 16.1689 0 
115.978 16.4883 0 
115.423 17.1502 0 
116.312 15.4459 0 
116.452 15.6536 0 
115.14 15.473 0 
116.722 16.2181 0 
115.517 16.053 0 
116.524 17.1797 0 
116.77 16.9999 0 
115.81 15.4416 0 
115.298 16.0319 0 
115.079 15.461 0 
116.302 16.981 0 
115.424 17.4226 0 
115.462 15.5404 0 
115.482 16.496 0 
116.332 16.0613 0 
116.207 16.0444 0 
116.382 15.8741 0 
116.417 16.8785 0 
115.195 17.2344 0 
116.686 16.6294 0 
116.195 15.3111 0 
115.763 17.3186 0 
116.904 15.5928 0 
115.813 17.1863 0 
115.07 15.6639 0 
117.108 15.6826 0 
115.592 16.1815 0 
116.67 16.8022 0 
117.147 15.1274 0 
117.299 17.2717 0 
115.651 16.9578 0 
116.341 17.3181 0 
115.498 17.2626 0 
116.926 16.5807 0 
116.009 15.392 0 
115.493 15.97 0 
115.844 17.2855 0 
116.785 16.8195 0 
116.32 15.6811 0 
115.475 15.0939 0 
116.201 17.2516 0 
116.417 15.1168 0 
117.452 15.9377 0 
115.233 16.4288 0 
115.74 15.4176 0 
116.699 16.9579 0 
116.202 16.946 0 
116.38 16.1963 0 
116.458 15.8873 0 
116.325 16.824 0 
116.181 17.17 0 
117.103 16.0294 0 
115.811 16.2077 0 
116.541 17.1422 0 
116.261 15.2602 0 
117.297 16.8924 0 
116.745 15.2184 0 
116.577 15.4908 0 
116.956 15.7566 0 
116.037 15.1555 0 
116.591 17.4217 0 
115.36 15.4016 0 
116.633 17.358 0 
116.162 15.2975 0 
115.568 15.4465 0 
117.232 16.3141 0 
116.923 17.3909 0 
116.331 15.1905 0 
115.895 16.5045 0 
115.985 15.9799 0 
116.477 15.0704 0 
115.805 15.7806 0 
117.279 16.2669 0 
117.412 17.1714 0 
116.683 17.1077 0 
116.833 16.2531 0 
115.072 15.4756 0 
115.965 15.1718 0 
116.013 17.3117 0 
117.092 15.5285 0 
116.213 15.2602 0 
116.12 15.1246 0 
116.95 17.3553 0 
116.446 16.6625 0 
116.309 15.9059 0 
117.088 15.8016 0 
115.483 17.0164 0 
116.449 16.9575 0 
115.179 16.6313 0 
115.684 15.3292 0 
116.347 15.2082 0 
116.401 16.62 0 
115.753 17.1971 0 
116.341 16.0395 0 
115.245 16.9012 0 
116.218 15.9366 0 
115.077 15.446 0 
115.402 15.3106 0 
116.511 15.119 0 
115.767 16.1183 0 
116.389 15.4356 0 
117.376 15.8833 0 
116.974 15.2009 0 
116.556 17.3393 0 
116.524 17.3157 0 
116.728 16.7846 0 
117.182 15.5168 0 
116.315 15.241 0 
115.972 15.9494 0 
117.45 17.4344 0 
115.952 15.57 0 
115.908 16.8679 0 
117.02 15.8985 0 
115.399 16.7994 0 
115.082 16.9787 0 
116.885 16.4502 0 
115.085 15.5944 0 
116.021 16.3061 0 
116.278 16.8552 0 
117.142 17.1805 0 
117.096 16.9636 0 
116.408 16.5242 0 
115.49 15.3657 0 
116.644 15.5268 0 
115.096 15.4738 0 
115.024 16.5864 0 
117.043 16.118 0 
116.543 15.0874 0 
116.823 16.4402 0 
117.431 15.8968 0 
116.379 15.1314 0 
115.578 15.5563 0 
116.137 16.6028 0 
117.2 15.8231 0 
116.581 16.7418 0 
117.186 16.9919 0 
115.329 15.8039 0 
115.756 17.0072 0 
116.091 16.3486 0 
117.196 16.3056 0 
115.488 15.2252 0 
117.449 16.6068 0 
116.87 17.0909 0 
116.784 17.404 0 
117.362 17.2864 0 
117.185 15.9262 0 
116.408 16.0298 0 
116.125 15.2752 0 
116.24 15.4593 0 
116.584 16.6352 0 
116.438 17.33 0 
116.21 15.7377 0 
116.745 16.1758 0 
116.979 15.8633 0 
115.356 15.9495 0 
115.051 16.8027 0 
116.908 15.3279 0 
115.6 16.0933 0 
117.005 15.1108 0 
116.527 17.0083 0 
117.161 16.9848 0 
116.846 16.3625 0 
115.226 15.9564 0 
117.154 15.6462 0 
116.949 16.4729 0 
115.504 16.9237 0 
115.376 16.8699 0 
115.219 15.2522 0 
116.275 15.9881 0 
115.093 15.8764 0 
115.277 15.4869 0 
115.007 16.5808 0 
115.518 15.581 0 
117.336 15.4834 0 
116.909 16.5789 0 
116.381 15.1683 0 
117.041 17.3913 0 
116.435 16.8374 0 
115.467 16.2749 0 
116.479 17.3263 0 
116.599 15.3213 0 
117.149 16.0144 0 
116.828 17.0718 0 
115.145 15.4466 0 
115.929 17.3406 0 
116.949 15.2816 0 
115.755 16.578 0 
115.753 15.671 0 
117.138 16.0167 0 
116.486 17.4457 0 
115.14 15.1369 0 
115.907 16.2062 0 
115.61 16.6868 0 
116.698 15.103 0 
114.988 16.5974 0 
116.679 17.0845 0 
115.182 17.45 0 
115.119 16.7193 0 
116.61 16.9285 0 
116.933 15.2774 0 
116.755 15.3173 0 
117.228 16.0526 0 
116.824 16.1575 0 
115.8 15.1188 0 
115.529 15.0977 0 
115.681 16.4453 0 
116.038 15.2803 0 
115.838 15.7198 0 
117.291 16.3335 0 
116.868 15.9663 0 
116.577 15.8967 0 
115.055 16.5841 0 
116.792 16.411 0 
117.409 16.4465 0 
116.106 16.2384 0 
116.315 16.9982 0 
115.204 15.3528 0 
117.167 16.2878 0 
115.995 17.0106 0 
115.743 16.0819 0 
117.05 17.3937 0 
117.391 16.4971 0 
115.44 16.5564 0 
115.078 17.2378 0 
116.423 17.0436 0 
116.93 15.3227 0 
115.773 16.2971 0 
116.925 15.4406 0 
115.294 15.6047 0 
115.914 15.9602 0 
117.061 15.6124 0 
116.767 17.0215 0 
115.386 17.3656 0 
115.925 16.6647 0 
116.652 15.6627 0 
114.986 17.0556 0 
117.106 16.2598 0 
116.628 17.0311 0 
116.23 16.13 0 
115.016 15.8795 0 
117.228 15.2445 0 
116.507 15.0911 0 
115.869 17.1052 0 
117.046 17.1518 0 
116.02 15.1737 0 
115.598 16.9571 0 
116.726 16.84 0 
115.235 15.2028 0 
115.61 15.5317 0 
115.006 15.3533 0 
116.406 15.808 0 
115.34 17.3949 0 
116.323 16.2302 0 
117.312 15.1044 0 
115.957 15.4168 0 
115.575 15.1279 0 
116.608 16.9019 0 
116.441 15.4833 0 
115.981 16.6712 0 
116.35 15.2146 0 
115.299 15.7728 0 
116.496 16.7067 0 
115.918 16.7978 0 
115.476 15.9803 0 
116.869 16.4301 0 
115.475 16.5548 0 
115.369 17.2039 0 
116.785 15.4069 0 
116.127 16.7891 0 
115.331 16.77 0 
117.279 16.3638 0 
116.549 16.4763 0 
117.194 15.3542 0 
116.208 15.4644 0 
117.426 15.9573 0 
115.613 16.6273 0 
115.278 16.4388 0 
117.365 16.1301 0 
115.105 15.2364 0 
115.541 16.6978 0 
115.728 16.1658 0 
115.732 15.3042 0 
116.151 15.3984 0 
116.779 15.6433 0 
116.62 16.4829 0 
115.923 15.6825 0 
116.249 16.6581 0 
116.4 16.0327 0 
115.248 16.7243 0 
116.894 15.5946 0 
115.722 17.3456 0 
116.386 15.8805 0 
116.303 15.6286 0 
115.886 16.897 0 
115.804 15.5139 0 
116.661 15.3103 0 
116.867 15.4124 0 
116.052 16.7101 0 
116.403 16.099 0 
117.215 15.3575 0 
115.408 16.8382 0 
116.852 15.7476 0 
114.977 17.2658 0 
116.497 15.41 0 
116.565 15.2716 0 
116.366 15.6471 0 
115.603 15.1056 0 
117.125 17.423 0 
116.515 15.4168 0 
116.989 16.2021 0 
116.994 15.5256 0 
116.058 15.3452 0 
116.995 14.9787 0 
115.553 15.4898 0 
116.973 16.7797 0 
115.803 15.1321 0 
115.4 16.7848 0 
115.078 16.65 0 
116.283 15.9958 0 
115.895 16.8355 0 
117.101 15.5627 0 
116.702 16.1208 0 
115.959 15.7398 0 
115.031 15.5183 0 
116.795 15.8782 0 
115.958 16.7507 0 
116.907 16.1768 0 
116.03 15.9934 0 
117.092 16.5184 0 
116.305 16.5462 0 
115.083 16.5565 0 
116.89 16.3503 0 
115.527 16.245 0 
115.385 16.0522 0 
115.826 15.3754 0 
116.289 16.5577 0 
115.964 15.4108 0 
117.282 16.4947 0 
117.218 15.8369 0 
117.054 16.2605 0 
116.081 16.2039 0 
116.772 16.9153 0 
116.236 15.2138 0 
116.294 16.2019 0 
116.854 16.0518 0 
116.293 17.3649 0 
116.916 17.2127 0 
115.596 17.1432 0 
116.099 17.2586 0 
116.778 16.6376 0 
116.589 16.4769 0 
115.483 15.1712 0 
115.958 15.732 0 
117.052 15.4469 0 
115.27 16.7179 0 
115.87 16.0871 0 
116.647 17.4216 0 
115.363 15.4327 0 
116.419 15.8569 0 
115.194 15.4762 0 
115.907 16.0339 0 
116.714 16.8841 0 
116.628 15.9023 0 
116.899 17.1323 0 
117.334 15.2269 0 
116.146 15.402 0 
115.807 15.8027 0 
116.222 16.6584 0 
115.642 16.573 0 
115.276 15.1008 0 
115.846 15.7412 0 
115.672 16.6573 0 
115.723 16.1554 0 
116.701 15.3827 0 
115.531 15.3373 0 
117.022 16.1759 0 
117.034 17.4505 0 
115.938 14.9672 0 
116.295 16.2432 0 
116.68 16.8094 0 
116.964 15.9971 0 
116.978 15.7299 0 
115.112 17.4528 0 
115.012 17.2603 0 
116.984 17.4104 0 
117.148 17.1518 0 
115.113 16.396 0 
117.119 16.2816 0 
116.813 17.4029 0 
116.87 17.2772 0 
116.204 18.239 0 
115.34 17.5225 0 
115.809 18.9681 0 
115.562 18.2087 0 
116.541 18.3439 0 
115.782 19.0277 0 
115.754 17.6547 0 
116.151 18.7196 0 
115.856 17.5837 0 
115.879 18.4118 0 
116.653 17.9004 0 
115.045 18.0065 0 
116.177 17.5453 0 
117.361 18.8229 0 
116.407 18.3938 0 
116.606 19.0189 0 
115.085 17.967 0 
115.466 18.7741 0 
116.697 17.9084 0 
116.826 18.5167 0 
115.148 18.5522 0 
115.512 17.6218 0 
115.957 18.6354 0 
115.881 17.4818 0 
115.52 18.2154 0 
115.88 17.7989 0 
117.455 18.2317 0 
115.462 18.5506 0 
115.314 18.4013 0 
[...]
      <PointData Vectors="vector">
        <DataArray type="Float32" Name="Velocity" NumberOfComponents="3" format="ascii">

