<VTKFile type="UnstructuredGrid" version="0.1" byte_order="BigEndian">
  <UnstructuredGrid>
        <Piece NumberOfPoints="8000" NumberOfCells="0" Time= "0.24">      <Points>
        <DataArray name="Position" type="Float32"  NumberOfComponents= "3"  format="ascii">

88.0004 1.59361 0 
89.3378 1.67291 0 
88.5499 5.3914 0 
88.1728 17.5638 0 
88.6534 25.3103 0 
91.4167 0.546474 0 
91.3282 0.852994 0 
88.9162 1.95698 0 
89.2654 3.81116 0 
90.0301 3.15233 0 
89.0583 2.26224 0 
90.7026 6.20946 0 
91.2008 6.83212 0 
91.1643 4.99626 0 
90.4433 5.44178 0 
91.6119 8.05704 0 
90.7111 8.70348 0 
90.7177 17.9763 0 
91.0785 20.4167 0 
91.1541 24.5189 0 
90.633 25.7292 0 
89.7943 25.6907 0 
89.1932 32.4028 0 
91.1321 33.2918 0 
91.4307 35.7027 0 
90.7213 36.2487 0 
91.0255 39.6825 0 
93.2947 0.453945 0 
93.278 1.14801 0 
92.4008 0.453061 0 
94.0924 38.7246 0 
92.7861 1.22027 0 
92.9966 1.63777 0 
92.0731 39.5479 0 
93.035 4.20113 0 
94.1245 2.67625 0 
92.5423 2.24756 0 
93.1366 3.35387 0 
92.9436 2.78158 0 
92.916 4.44375 0 
92.6307 4.46228 0 
93.4513 3.87416 0 
92.6039 4.42564 0 
93.6597 3.44776 0 
92.1508 4.14932 0 
94.2581 4.80417 0 
93.3359 5.39175 0 
92.3394 6.57512 0 
93.8656 8.20143 0 
92.9997 9.64452 0 
93.0865 7.69612 0 
94.2658 7.42952 0 
92.0295 8.96444 0 
92.9365 11.9012 0 
93.7112 12.4607 0 
93.5843 13.3436 0 
93.6086 16.0478 0 
91.8478 17.4002 0 
93.4958 17.2572 0 
92.7234 19.7353 0 
94.0757 19.8296 0 
93.6782 17.8411 0 
92.6373 19.2993 0 
93.3895 20.9222 0 
93.9929 20.8721 0 
91.9659 23.1403 0 
93.8359 23.8026 0 
93.45 24.6166 0 
94.0821 27.4178 0 
93.348 27.1599 0 
91.9257 27.457 0 
92.9012 25.0702 0 
92.9174 29.0353 0 
92.9772 30.0817 0 
94.2296 31.4969 0 
93.6531 30.3334 0 
92.3755 30.336 0 
92.1671 31.6323 0 
94.3226 34.465 0 
93.3219 32.3565 0 
93.7418 35.2105 0 
92.3386 36.1085 0 
93.1352 37.5404 0 
93.4251 34.3973 0 
93.4963 36.7666 0 
93.357 38.3865 0 
94.4038 38.9465 0 
92.5053 38.0181 0 
93.408 1.12809 0 
91.8788 37.6393 0 
96.0749 1.98758 0 
94.15 0.849216 0 
95.4258 1.21812 0 
95.4137 37.6216 0 
95.4528 1.30431 0 
96.8222 1.78439 0 
95.0566 1.94129 0 
94.7091 0.546439 0 
96.086 37.7873 0 
95.5199 0.269777 0 
96.183 1.36383 0 
96.6164 1.1098 0 
94.3438 1.52405 0 
96.6609 2.54272 0 
96.3315 2.3602 0 
95.4051 3.33035 0 
95.0421 3.42367 0 
95.5874 3.60903 0 
94.1546 4.2786 0 
94.0863 3.77892 0 
94.6161 3.79565 0 
94.8613 3.60495 0 
96.6911 2.44191 0 
96.6412 4.05271 0 
95.0565 2.92432 0 
95.0013 3.97127 0 
96.0055 2.60969 0 
95.6331 2.80135 0 
96.2326 6.38531 0 
95.8285 5.34201 0 
96.12 7.13081 0 
96.6293 5.81658 0 
95.9313 6.16095 0 
95.1692 7.08236 0 
96.0706 5.56195 0 
95.2922 4.6612 0 
96.6815 5.27925 0 
96.2842 5.73861 0 
94.9626 6.30772 0 
96.432 4.80495 0 
96.5753 6.61486 0 
95.4567 6.15466 0 
94.6437 8.17465 0 
96.8113 8.17045 0 
96.3606 7.71178 0 
94.5805 9.57322 0 
96.0476 9.76257 0 
95.9573 8.22527 0 
95.1791 9.18521 0 
95.099 9.60324 0 
96.4522 7.18686 0 
95.804 8.7553 0 
96.4034 10.4901 0 
95.9683 10.5019 0 
95.6098 11.6032 0 
96.236 10.3126 0 
96.5155 9.70809 0 
95.9698 10.1953 0 
95.9196 11.9703 0 
96.885 11.8231 0 
96.4938 10.5757 0 
96.2222 11.526 0 
96.1656 10.7889 0 
95.9235 10.0339 0 
96.4121 11.3162 0 
96.6129 11.7516 0 
96.1879 10.0938 0 
96.3838 10.9768 0 
95.552 10.8861 0 
94.2291 10.2624 0 
94.9243 11.4156 0 
96.3848 14.4704 0 
96.4637 12.8795 0 
94.2891 14.2179 0 
96.2457 13.273 0 
96.0028 14.6422 0 
95.1256 13.2978 0 
95.7994 13.5194 0 
95.0853 15.0895 0 
96.7526 17.135 0 
95.1612 14.9695 0 
96.3995 16.5509 0 
95.0684 16.5578 0 
96.3613 16.4486 0 
95.8271 15.6447 0 
95.9157 15.2028 0 
95.7171 16.5531 0 
96.3866 18.6356 0 
95.5986 17.7504 0 
95.247 19.2564 0 
96.3616 19.3371 0 
95.5759 17.6845 0 
95.9107 19.1049 0 
96.8657 17.6531 0 
95.7589 21.9811 0 
96.5383 22.4502 0 
96.1803 20.4386 0 
94.8571 23.7807 0 
95.2146 24.3616 0 
95.9887 22.9785 0 
96.6962 27.0198 0 
96.294 25.2286 0 
96.4971 26.4948 0 
95.0438 26.6273 0 
95.6262 26.6585 0 
96.5032 26.7565 0 
95.6781 25.5285 0 
95.6698 25.9007 0 
95.5406 29.2948 0 
96.3663 28.4485 0 
96.4633 29.5819 0 
96.0089 27.7298 0 
94.9241 30.0656 0 
96.484 27.8998 0 
96.5616 31.7427 0 
95.3879 30.777 0 
95.5267 32.3261 0 
96.1917 31.302 0 
95.5934 31.8356 0 
94.2448 32.8187 0 
95.6591 34.1181 0 
96.0681 34.2 0 
95.0299 33.0317 0 
95.5819 32.0287 0 
96.3729 32.749 0 
96.6798 35.8426 0 
94.3068 35.8809 0 
94.923 36.6588 0 
95.7723 35.6456 0 
96.4245 35.0902 0 
95.4663 37.5724 0 
96.0179 36.642 0 
94.6803 34.9762 0 
96.5906 36.1108 0 
96.3082 36.7078 0 
95.2748 35.4631 0 
94.8735 37.8931 0 
94.6103 37.1339 0 
96.3443 37.0307 0 
95.2365 37.2742 0 
95.0836 37.0172 0 
96.5255 0.54049 0 
98.8279 0.146681 0 
98.8895 0.281934 0 
99.152 0.453192 0 
97.7993 39.5799 0 
99.3397 0.654817 0 
97.2402 39.5529 0 
98.5862 0.964671 0 
97.9438 1.91389 0 
98.2792 37.7213 0 
98.2406 37.8412 0 
98.1451 39.049 0 
97.0195 0.772391 0 
97.9882 37.831 0 
98.6115 1.25445 0 
97.5575 0.323181 0 
98.6847 1.55617 0 
98.0917 1.745 0 
96.7557 0.800017 0 
99.134 0.0899538 0 
98.1829 2.54199 0 
97.194 4.12569 0 
99.1463 2.95331 0 
97.7648 4.35126 0 
98.0733 4.42456 0 
99.1579 3.71762 0 
98.2567 2.81229 0 
97.3891 2.83068 0 
97.4354 4.21119 0 
96.8057 2.50977 0 
99.3468 3.40971 0 
98.1399 2.55556 0 
97.3722 2.66929 0 
98.3349 2.95032 0 
97.4997 2.89279 0 
98.5806 2.30381 0 
99.1574 3.55043 0 
98.194 2.60583 0 
97.3464 3.10715 0 
97.2184 2.85752 0 
98.3445 3.04692 0 
99.1855 2.40247 0 
96.9479 3.24611 0 
99.1621 4.91562 0 
99.3817 6.62756 0 
97.1258 4.87579 0 
98.6766 4.64132 0 
97.2118 5.40995 0 
97.7538 6.97896 0 
98.6286 5.27587 0 
96.9045 5.37712 0 
98.6069 6.62875 0 
96.8662 5.02135 0 
98.8823 4.99396 0 
96.8272 6.482 0 
98.8219 4.76089 0 
98.2966 5.19993 0 
97.8366 6.21634 0 
97.1667 5.13001 0 
97.4241 6.87394 0 
97.2557 6.77254 0 
97.7654 5.77811 0 
98.4944 6.60272 0 
97.6094 5.36418 0 
97.67 8.34937 0 
99.0333 8.69239 0 
98.5707 7.1815 0 
98.7343 8.80629 0 
98.0083 9.34726 0 
98.103 8.37433 0 
98.2245 8.74174 0 
98.2602 8.93304 0 
98.7602 8.63959 0 
97.9931 9.67045 0 
98.7736 8.95152 0 
97.3973 7.88427 0 
98.6401 7.33085 0 
98.2042 9.55462 0 
98.6462 7.44025 0 
98.8161 9.001 0 
97.2777 8.4607 0 
99.255 8.69344 0 
97.4089 8.92963 0 
98.2133 9.32811 0 
99.0062 8.08372 0 
98.3139 7.28083 0 
96.8363 8.79078 0 
99.1015 8.31695 0 
97.6679 9.08526 0 
98.2132 10.5227 0 
98.5518 11.4086 0 
98.7434 9.93454 0 
98.2902 12.0714 0 
98.4344 12.0554 0 
97.5041 10.1938 0 
98.4283 10.4989 0 
98.2587 10.2023 0 
98.0982 11.1996 0 
97.7501 10.2847 0 
98.9949 11.681 0 
98.566 10.9332 0 
97.6213 10.2395 0 
97.3535 11.4389 0 
98.4278 10.6431 0 
98.4573 11.2162 0 
97.7481 10.5637 0 
98.7954 11.4148 0 
98.238 9.911 0 
98.8607 9.91174 0 
97.3205 10.016 0 
97.2106 12.0321 0 
97.3173 11.2586 0 
97.5966 13.6643 0 
98.382 13.6827 0 
97.7122 13.9243 0 
98.2202 13.9824 0 
97.0257 13.0781 0 
97.6286 13.5437 0 
98.6908 12.8255 0 
97.5189 13.5994 0 
98.7641 12.8153 0 
98.2954 12.5294 0 
96.8704 13.8643 0 
99.0637 13.2998 0 
97.7086 12.4704 0 
98.8473 12.6382 0 
98.3408 12.6885 0 
99.0471 13.7878 0 
98.0462 12.5218 0 
98.7695 13.3693 0 
96.873 14.6866 0 
98.585 12.6731 0 
97.6037 14.3792 0 
97.6682 13.343 0 
99.3637 15.3668 0 
98.4993 16.5317 0 
97.9584 15.91 0 
99.2653 17.2047 0 
98.8697 15.9395 0 
98.7206 16.8749 0 
97.1157 17.5243 0 
97.083 15.005 0 
99.1925 17.2591 0 
98.876 16.3296 0 
97.9083 14.8631 0 
98.7282 15.411 0 
97.3089 16.5546 0 
96.9162 16.8403 0 
98.5565 17.3009 0 
98.9271 15.0255 0 
97.9051 16.0009 0 
98.1611 15.4163 0 
98.5666 14.8712 0 
97.5328 16.7454 0 
98.6979 16.4276 0 
98.4378 16.3102 0 
98.7407 15.5685 0 
97.4703 15.5466 0 
98.3788 15.8215 0 
97.4 17.2388 0 
96.9004 15.2002 0 
98.8995 18.535 0 
97.3618 19.3447 0 
98.9197 18.6223 0 
96.7188 18.2019 0 
99.0724 17.7399 0 
98.5145 17.7164 0 
98.2024 19.4044 0 
98.3094 17.5342 0 
98.5287 19.6652 0 
97.5467 21.7932 0 
98.7274 20.9721 0 
97.3889 21.2551 0 
96.8484 20.5002 0 
98.1704 22.4151 0 
98.3288 24.8228 0 
99.3556 23.3448 0 
98.011 27.2464 0 
97.1755 25.8907 0 
97.1717 25.7342 0 
98.9498 29.9678 0 
98.3881 29.8163 0 
99.0437 30.0988 0 
99.4271 29.9418 0 
97.3565 28.8705 0 
98.3893 29.4088 0 
97.7698 28.1248 0 
97.7647 29.8551 0 
98.4981 31.6873 0 
96.8529 30.9717 0 
98.4855 30.3997 0 
97.6906 31.9814 0 
97.2671 31.5404 0 
98.2596 32.6776 0 
97.3995 32.3216 0 
98.0787 30.9079 0 
98.6008 33.9942 0 
98.3142 31.9099 0 
98.3032 32.1034 0 
97.6627 33.2185 0 
98.2247 34.3079 0 
97.6911 33.4478 0 
97.234 33.358 0 
96.9004 33.7108 0 
99.0312 31.8707 0 
97.3737 32.783 0 
97.575 33.095 0 
98.1266 33.829 0 
98.2417 33.762 0 
97.9898 32.1038 0 
97.7435 33.4371 0 
97.8457 32.6134 0 
98.2403 33.7826 0 
97.6701 36.2637 0 
98.3926 36.4156 0 
98.8654 35.2348 0 
98.8461 36.5826 0 
97.4324 35.6309 0 
97.851 35.2799 0 
97.351 34.5999 0 
98.5773 35.2589 0 
97.8129 34.8207 0 
99.0206 34.7017 0 
98.9022 36.7471 0 
99.1605 37.1047 0 
98.3836 35.6834 0 
98.7606 35.3143 0 
98.7274 34.702 0 
99.2115 35.581 0 
97.4576 37.6695 0 
98.9996 35.3459 0 
98.6509 34.2124 0 
97.9592 36.507 0 
99.1129 37.2782 0 
97.7579 36.2923 0 
98.1468 35.7802 0 
99.0275 36.3277 0 
98.8925 34.5354 0 
98.9344 38.5686 0 
97.6919 37.3258 0 
98.3128 38.9655 0 
97.353 38.119 0 
96.9931 38.9318 0 
97.6889 37.1933 0 
97.4165 37.0733 0 
97.5771 38.2689 0 
97.3283 38.3082 0 
98.4205 37.909 0 
97.6072 39.885 0 
98.7912 37.2419 0 
97.17 39.5864 0 
97.2124 37.1683 0 
97.5621 37.267 0 
99.0181 36.9589 0 
100.848 37.9091 0 
100.682 1.18791 0 
101.34 0.0534312 0 
101.101 38.6433 0 
101.591 0.785378 0 
101.314 0.0934762 0 
101.604 0.659536 0 
100.363 0.699565 0 
99.5713 38.5932 0 
100.772 0.208069 0 
101.137 38.8483 0 
101.044 38.429 0 
99.6112 39.4035 0 
99.7095 1.78351 0 
100.005 0.108378 0 
101.274 0.231854 0 
100.273 0.876253 0 
101.444 1.73744 0 
101.27 39.8014 0 
99.9757 0.311039 0 
101.507 1.96624 0 
100.918 0.530233 0 
101.318 39.9636 0 
100.228 37.7926 0 
100.589 1.66911 0 
100.689 38.3718 0 
100.609 37.9912 0 
99.7143 1.1244 0 
101.52 37.8853 0 
101.033 1.46901 0 
100.978 0.487152 0 
[...]
      <PointData Vectors="vector">
        <DataArray type="Float32" Name="Velocity" NumberOfComponents="3" format="ascii">

-223.661 -160.849 0 
-225.156 -148.136 0 
-121.163 117.033 0 
-209.927 -133.835 0 
-226.324 -98.953 0 
-204.125 -67.0212 0 
-180.913 -28.5737 0 
-204.184 7.03005 0 
-167.98 23.0751 0 
-178.135 66.3161 0 
-211.259 -117.44 0 
-186.83 -106.845 0 
-215.673 -97.3059 0 
-175.835 -126.356 0 
-189.874 -70.6284 0 
-166.107 -96.5543 0 
-209.222 -98.5979 0 
-174.53 -59.5998 0 
-191.136 -64.1583 0 
-169.88 -68.3518 0 
-174.272 -51.3335 0 
-171.83 -46.1445 0 
-155.905 -57.3216 0 
-186.977 -1.54378 0 
-150.536 -12.2993 0 
-133.077 15.5632 0 
-133.54 23.6784 0 
-176.287 4.68919 0 
-116.805 24.5084 0 
-144.899 37.1398 0 
-120.331 50.8688 0 
-135.21 80.8823 0 
-144.012 102.807 0 
-152.792 90.0038 0 
-139.116 95.7598 0 
-127.509 93.8734 0 
-177.773 -128.932 0 
-187.531 -144.984 0 
-145.911 112.376 0 
-182.593 -115.437 0 
-175.465 -110.962 0 
-167.29 -126.81 0 
-175.759 -114.831 0 
-173.198 -106.368 0 
-148.813 -134.01 0 
-110.856 108.629 0 
-130.961 -94.2467 0 
-181.996 -135.247 0 
-143.055 -85.0599 0 
-146.07 -82.9787 0 
-160.078 -121.382 0 
-183.946 -55.8599 0 
-137.031 -87.3344 0 
-189.521 -92.041 0 
-180.686 -140.617 0 
-159.512 -100.333 0 
-142.568 -77.9726 0 
-164.178 -94.4507 0 
-156.309 -74.6558 0 
-173.139 -91.9192 0 
-116.127 93.8542 0 
-136.505 -114.882 0 
-142.821 -73.933 0 
-151.439 -68.6147 0 
-136.231 -66.3365 0 
-199.275 -86.9909 0 
-156.845 -33.774 0 
-145.523 -52.1892 0 
-152.922 -64.2176 0 
-169.787 -76.5296 0 
-165.535 -16.9359 0 
-165.586 -45.5592 0 
-143.184 -9.13704 0 
-164.502 -15.5822 0 
-152.395 -25.1221 0 
-166.12 -57.799 0 
-170.871 3.39089 0 
-157.904 3.20954 0 
-155.969 -24.7453 0 
-171.938 18.4267 0 
-157.369 -18.0407 0 
-141.466 -16.0158 0 
-134.928 28.2808 0 
-129.693 52.5619 0 
-124.276 9.14526 0 
-141.357 25.2743 0 
-116.467 32.2312 0 
-100.588 44.5548 0 
-165.159 52.9824 0 
-174.616 -5.22577 0 
-115.42 66.3475 0 
-146.119 -156.012 0 
-137.646 -156.176 0 
-163.338 -147.043 0 
-140.987 88.5539 0 
-106.851 83.6719 0 
-164.147 -174.196 0 
-178.531 -136.118 0 
-162.635 -112.793 0 
-177.35 -133.399 0 
-148.704 76.4303 0 
-173.216 -108.729 0 
-163.179 -95.0515 0 
-108.19 97.7213 0 
-121.06 66.6328 0 
-145.722 -67.0481 0 
-111.378 78.5797 0 
-124.803 97.4597 0 
-157.336 -113.001 0 
-168.739 -91.9952 0 
-121.743 -126.761 0 
-121.497 112.608 0 
-129.33 -84.3364 0 
-122.979 140.247 0 
-154.361 -105.13 0 
-135.097 -104.896 0 
-98.1554 93.8333 0 
-177.814 -95.2009 0 
-148.933 -104.018 0 
-158.901 -81.2068 0 
-153.79 -102.617 0 
-101.543 123.739 0 
-162.322 -106.454 0 
-166.677 -74.9483 0 
-175.199 -75.1743 0 
-125.607 -98.7978 0 
-154.906 -68.7701 0 
-139.804 -95.2573 0 
-166.3 -49.8128 0 
-141.51 -102.957 0 
-136.934 -98.189 0 
-189.803 -97.3437 0 
-194.783 -113.014 0 
-132.836 -104.127 0 
-162.924 -91.5509 0 
-181.056 -80.0073 0 
-184.855 -117.849 0 
-116.856 -111.946 0 
-145.342 -82.187 0 
-158.823 -102.134 0 
-145.186 -93.2931 0 
-175.804 -91.0931 0 
-178.796 -74.7364 0 
-130.726 -99.293 0 
-179.178 -65.6097 0 
-169.372 -88.2172 0 
-154.799 -35.244 0 
-154.258 -100.942 0 
-122.2 -100.254 0 
-131.926 -102.663 0 
-163.165 -85.2463 0 
-130.76 -68.1563 0 
-168.862 -114.655 0 
-138.625 -111.431 0 
-134.301 -64.8329 0 
-164.032 -87.7515 0 
-121.665 -74.4449 0 
-157.954 -83.8643 0 
-120.141 -85.5592 0 
-158.905 -93.462 0 
-145.293 -68.8584 0 
-139.603 -46.6931 0 
-164.315 -92.7884 0 
-124.98 -80.9418 0 
-142.774 -43.6851 0 
-156.913 -45.7563 0 
-130.102 -82.4396 0 
-171.719 -86.9709 0 
-145.781 -54.9087 0 
-113.626 -67.8767 0 
-165.091 -63.6085 0 
-129.71 -70.3424 0 
-137.715 -75.0056 0 
-162.68 -73.845 0 
-180.232 -68.643 0 
-178.454 -40.2507 0 
-183.319 -69.139 0 
-137.367 -46.3293 0 
-162.912 -47.1599 0 
-124.315 -24.5071 0 
-170.206 -37.0576 0 
-157.267 -51.9008 0 
-176.006 -56.1459 0 
-151.544 -44.7663 0 
-134.401 -40.8545 0 
-147.077 -75.7751 0 
-146.585 -26.1345 0 
-130.691 -42.7772 0 
-183.873 -58.6598 0 
-155.664 -21.6576 0 
-174.197 -62.2273 0 
-159.787 -82.6865 0 
-149.089 -50.0369 0 
-186.818 -54.106 0 
-170.514 -50.7844 0 
-174.778 -63.2123 0 
-163.47 -23.5498 0 
-175.47 -42.4091 0 
-130.05 -49.3322 0 
-181.243 -68.095 0 
-143.754 -19.1982 0 
-140.208 -28.7858 0 
-145.832 -0.882234 0 
-160.909 -53.958 0 
-123.407 26.7899 0 
-153.685 -15.7152 0 
-169.594 -53.0546 0 
-130.807 -21.6475 0 
-148.746 -24.2372 0 
-162.132 -28.2787 0 
-148.343 -10.4399 0 
-110.511 -10.1887 0 
-161.114 16.1698 0 
-150.969 -25.3042 0 
-143.09 -21.3304 0 
-150.418 -24.9874 0 
-135.093 -12.8515 0 
-160.593 19.3056 0 
-154.199 9.32238 0 
-147.544 5.94304 0 
-153.707 -10.0924 0 
-127.023 -3.13319 0 
-104.954 -10.6167 0 
-191.203 -33.6286 0 
-159.245 19.0329 0 
-161.937 -17.9723 0 
-122.412 4.81538 0 
-93.0782 22.7282 0 
-171.294 9.06342 0 
-119.429 15.4064 0 
-120.69 42.7758 0 
-120.401 -2.78263 0 
-103.538 52.6051 0 
-147.267 33.1759 0 
-95.4801 46.1172 0 
-120.98 -19.336 0 
-129.66 0.902687 0 
-124.012 28.1252 0 
-161.063 42.9426 0 
-137.421 18.3846 0 
-126.936 44.5738 0 
-142.861 33.251 0 
-131.08 60.5253 0 
-155.987 12.6519 0 
-114.649 53.3539 0 
-152.363 51.6558 0 
-163.976 75.0053 0 
-122.414 34.9099 0 
-158.854 37.0403 0 
-115.517 43.9883 0 
-131.436 -157.883 0 
-158.936 25.5205 0 
-138.138 68.0576 0 
-119.207 51.041 0 
-120.623 62.1449 0 
-144.437 45.6812 0 
-131.954 -148.958 0 
-120.19 71.8585 0 
-137.118 85.1441 0 
-213.111 -120.263 0 
-188.109 -177.566 0 
-139.024 -162.841 0 
-129.934 -130.278 0 
-105.905 -135.058 0 
-152.756 -148.42 0 
-127.092 52.845 0 
-139.111 -143.895 0 
-215.739 -102.991 0 
-132.786 -150.182 0 
-127.458 -102.945 0 
-158.308 -111.17 0 
-167.303 -151.083 0 
-157.643 -134.898 0 
-158.883 -130.315 0 
-112.319 73.6333 0 
-167.41 -100.141 0 
-164.878 -112.9 0 
-159.745 -148.63 0 
-156.032 -129.491 0 
-155.678 -128.72 0 
-142.415 -118.072 0 
-163.736 -129.309 0 
-109.829 60.6625 0 
-164.709 -142.379 0 
-165.855 -145.67 0 
-136.125 96.0708 0 
-184.908 -74.2017 0 
-200.944 -66.719 0 
-144.563 -89.2418 0 
-114.417 -104.33 0 
-131.439 -155.022 0 
-140.835 -81.5515 0 
-144.559 -105.032 0 
-130.515 -99.3498 0 
-138.764 -135.46 0 
-169.173 -90.0797 0 
-122.26 -109.397 0 
-155.126 -122.397 0 
-135.785 -109.714 0 
-142.949 -114.696 0 
-124.502 -76.9421 0 
-132.712 -135.153 0 
-147.316 -148.651 0 
-145.339 -102.13 0 
-155.399 -148.1 0 
-148.72 -123.738 0 
-175.318 -77.6766 0 
-221.41 -84.6623 0 
-138.269 -83.8468 0 
-122.167 -79.0187 0 
-143.571 -122.359 0 
-128.849 -99.1111 0 
-172.837 -83.5849 0 
-180.492 -77.5904 0 
-162.182 -95.6125 0 
-166.076 -91.1041 0 
-131.143 -74.3737 0 
-153.747 -99.2873 0 
-173.512 -94.9923 0 
-134.312 -78.6521 0 
-131.376 -94.9505 0 
-159.78 -86.6902 0 
-105.639 128.607 0 
-138.01 -85.5267 0 
-159.252 -93.1676 0 
-101.6 108.437 0 
-159.638 -78.0071 0 
-107.303 -68.9502 0 
-156.611 -94.01 0 
-132.11 -99.2853 0 
-162.682 -116.363 0 
-124.189 -110.136 0 
-163.443 -83.5459 0 
-144.161 -73.5668 0 
-122.002 -104.448 0 
-126.585 -94.9676 0 
-135.856 -102.263 0 
-156.062 -120.555 0 
-146.074 -130.516 0 
-144.912 -72.635 0 
-144.25 -88.1226 0 
-127.365 -45.7635 0 
-142.955 -85.4324 0 
-124.843 -100.258 0 
-135.332 -96.8778 0 
-125.004 -97.0856 0 
-169.552 -92.6831 0 
-146.089 -52.6095 0 
-166.583 -74.5838 0 
-157.308 -100.65 0 
-139.493 -35.7166 0 
-167.138 -95.1245 0 
-127.371 -85.4895 0 
-174.278 -77.7735 0 
-167.573 -78.1879 0 
-131.309 -70.3571 0 
-173.672 -67.5404 0 
-179.945 -76.2026 0 
-175.902 -52.1521 0 
-133.53 -76.6228 0 
-135.218 -49.872 0 
-122.378 -70.0961 0 
-119.42 -53.9563 0 
-170.431 -57.1991 0 
-175.723 -52.1355 0 
-165.844 -71.7003 0 
-170.599 -60.426 0 
-155.982 -65.0016 0 
-121.326 -49.2693 0 
-117.484 -67.8103 0 
-156.039 -75.2624 0 
-129.989 -87.3412 0 
-136.441 -79.463 0 
-115.818 -71.4568 0 
-130.873 -76.5551 0 
-127.965 -78.4908 0 
-147.386 -62.8074 0 
-140.5 -71.1468 0 
-135.785 -67.0644 0 
-107.42 -72.586 0 
-190.116 -75.1314 0 
-121.49 -69.8005 0 
-138.909 -50.6261 0 
-152.465 -65.5853 0 
-177.477 -34.6085 0 
-182.044 -19.4349 0 
-119.37 -65.5646 0 
-141.494 -81.5916 0 
-179.259 -70.6438 0 
-170.895 -59.9634 0 
-140.333 -59.5781 0 
-145.415 -53.3954 0 
-131.85 -31.2 0 
-158.43 -76.2915 0 
-152.767 -91.5373 0 
-159.242 -42.315 0 
-149.047 -59.2699 0 
-178.751 -87.2468 0 
-173.205 -78.4622 0 
-128.815 -19.9469 0 
-171.876 -79.5584 0 
-137.44 -54.7414 0 
-131.937 -39.3654 0 
-162.673 -60.946 0 
-156.851 -61.505 0 
-122.817 -43.8198 0 
-131.937 -80.7049 0 
-130.426 -26.8501 0 
-156.602 -53.3137 0 
-168.785 -43.8702 0 
-128.43 -69.4895 0 
-128.826 -43.3774 0 
-152.883 -35.4936 0 
-159.537 -42.4121 0 
-136.795 -11.7758 0 
-166.554 -35.6718 0 
-149.803 -41.6588 0 
-107.873 -29.7551 0 
-144.515 -63.3391 0 
-143.865 -79.1722 0 
-127.556 -55.3465 0 
-124.185 -30.3521 0 
-133.785 -44.4096 0 
-134.965 -20.8876 0 
-153.269 -52.6415 0 
-173.71 -46.2254 0 
-151.998 -52.2722 0 
-154.993 -36.3159 0 
-112.075 -78.0309 0 
-131.126 -71.435 0 
-189.429 -34.7902 0 
-170.796 -53.1677 0 
-168.751 -54.6085 0 
-198.684 -15.8006 0 
-123.224 -40.3579 0 
-136.773 -28.9718 0 
-162.885 -21.1311 0 
-156.741 -6.88905 0 
-146.376 -14.0227 0 
-148.354 -7.80341 0 
-128.886 -11.871 0 
-132.508 -30.4798 0 
-127.602 -8.86782 0 
-118.876 -29.1851 0 
-138.842 -18.3711 0 
-190.952 -24.363 0 
-160.62 24.1127 0 
-120.091 -22.7292 0 
-117.486 -11.8783 0 
-154.985 -21.1948 0 
-144.794 3.91991 0 
-108.752 -28.3394 0 
-158.876 7.04314 0 
-136.418 -31.6794 0 
-136.25 -60.1134 0 
-175.31 -5.80051 0 
-156.249 -3.01544 0 
-172.099 7.53988 0 
-144.236 -10.2929 0 
-138.525 -14.59 0 
-148.58 -10.3966 0 
-128.122 -13.4501 0 
-149.661 -30.9647 0 
-172.127 -16.3356 0 
-175.608 1.83178 0 
-148.19 -11.1926 0 
-151.574 15.4734 0 
-132.819 -46.8744 0 
-130.442 21.6299 0 
-146.079 36.0046 0 
-117.772 -44.0331 0 
-149.278 35.5615 0 
-141.43 8.20277 0 
-115.934 4.64409 0 
-156.896 13.6726 0 
-141.028 11.1602 0 
-91.4036 -16.7131 0 
-135.922 -12.1811 0 
-141.729 -21.6977 0 
-158.024 14.3877 0 
-137.977 3.53273 0 
-93.965 30.0018 0 
-178.401 -10.3756 0 
-132.506 11.1129 0 
-94.9275 -11.6967 0 
-97.5212 27.8688 0 
-88.3466 1.9512 0 
-126.567 9.66919 0 
-112.87 31.0312 0 
-129.169 2.23991 0 
-113.157 34.4613 0 
-120.79 63.0913 0 
-126.623 72.4841 0 
-104.848 11.2596 0 
-124.879 51.3327 0 
-136.47 43.6267 0 
-108.903 38.5774 0 
-170.383 -152.574 0 
-170.169 -154.737 0 
-179.023 -140.998 0 
-158.414 -164.675 0 
-200.581 -129.992 0 
-172.197 -158.651 0 
-114.748 -155.6 0 
-109.144 57.6757 0 
-103.607 35.9262 0 
-113.087 -170.345 0 
-105.66 43.7631 0 
-87.7673 45.73 0 
-110.825 -170.516 0 
-101.683 60.3698 0 
-109.048 -172.527 0 
-106.035 35.2451 0 
-174.103 -129.019 0 
-179.861 -115.17 0 
-172.559 -117.026 0 
-213.378 -106.979 0 
-206.576 -169.659 0 
-190.602 -165.79 0 
-187.535 -115.09 0 
-149.984 -164.365 0 
-156.304 -166.926 0 
-113.704 76.22 0 
-146.595 -154.019 0 
-192.694 -170.132 0 
-139.412 85.4144 0 
-127.475 -139.427 0 
-132.966 -178.267 0 
-131.111 53.95 0 
-136.058 -135.473 0 
-121.566 -140.064 0 
-152.537 -152.377 0 
-205.78 -82.872 0 
-201.905 -91.9977 0 
-162.376 -104.022 0 
-176.798 -89.824 0 
-166.514 -76.035 0 
-198.417 -120.659 0 
-190.02 -112.145 0 
-189.147 -93.9524 0 
-189.536 -103.963 0 
-172.956 -101.167 0 
-196.751 -89.0668 0 
-183.603 -80.1723 0 
-164.891 -120.348 0 
-141.042 -162.84 0 
-90.407 84.0282 0 
-124.574 -139.976 0 
-134.516 -132.459 0 
-132.77 -141.875 0 
-102.871 71.7729 0 
-128.92 -141.106 0 
-115.855 -105.802 0 
-130.256 -141.022 0 
-127.224 -143.226 0 
-120.826 -142.162 0 
-160.976 -131.079 0 
-149.567 -157.152 0 
-121.264 85.6545 0 
-144.475 -154.682 0 
-88.2576 86.6066 0 
-133.27 102.063 0 
-147.875 -121.227 0 
-93.3159 80.9022 0 
-138.69 -147.853 0 
-147.501 -176.995 0 
-123.113 -135.533 0 
-114.171 -161.076 0 
-151.835 -160.52 0 
-183.57 -81.0916 0 
-167.101 -80.8282 0 
-162.292 -73.619 0 
-199.518 -84.7652 0 
-160.952 -85.1049 0 
-140.755 -129.489 0 
-107.199 -123.228 0 
-144.111 -136.987 0 
-150.507 -154.7 0 
-155.082 -85.0265 0 
-136.234 -145.176 0 
-131.874 133.726 0 
-148.19 -136.163 0 
-140.773 -127.159 0 
-167.581 -68.7648 0 
-152.281 -100.821 0 
-158.357 -116.44 0 
-168.127 -127.05 0 
-139.729 -92.4007 0 
-174.998 -119.421 0 
-183.775 -94.9754 0 
-180.47 -96.1256 0 
-174.86 -101.181 0 
-181.506 -126.189 0 
-180.422 -99.5297 0 
-165.257 -89.2497 0 
-170.71 -99.0444 0 
-166.147 -117.661 0 
-162.053 -100.387 0 
-149.37 -119.97 0 
-116.627 -79.8488 0 
-127.728 -107.259 0 
-120.143 -112.723 0 
-160.022 -129.029 0 
-154.783 -123.447 0 
-122.604 -103.282 0 
-164.786 -114.58 0 
-183.895 -101.149 0 
-116.891 80.3049 0 
-129.513 -113.309 0 
-147.82 -129.357 0 
-116.723 -106.622 0 
-169.858 -94.0946 0 
-156.512 -145.457 0 
-126.401 -140.687 0 
-129.895 -114.207 0 
-121.135 -109.723 0 
-159.293 -143.687 0 
-129.803 -128.886 0 
-148.969 -135.033 0 
-112.153 -110.071 0 
-119.978 -122.508 0 
-151.678 -127.291 0 
-169.575 -127.199 0 
-156.518 -120.359 0 
-144.606 -82.5569 0 
-164.837 -117.323 0 
-116.484 -110.015 0 
-170.814 -74.6179 0 
-175.097 -78.8343 0 
-159.709 -68.7199 0 
-178.915 -104.574 0 
-164.063 -88.7903 0 
-176.761 -62.0502 0 
-170.182 -104.278 0 
-153.571 -66.2752 0 
-147.917 -79.2929 0 
-164.241 -85.0441 0 
-170.937 -91.278 0 
-160.323 -68.7877 0 
-166.467 -117.923 0 
-158.147 -82.7244 0 
-123.414 -79.914 0 
-122.384 -113.46 0 
-126.056 -121.526 0 
-150.203 -88.2029 0 
-146.222 -92.963 0 
-109.115 -96.7304 0 
-136.712 -85.7279 0 
-149.84 -74.8003 0 
-105.447 -85.7849 0 
-141.642 -96.2238 0 
-122.247 -111.322 0 
-105.017 -86.6916 0 
-139.406 -82.6613 0 
-116.973 -103.407 0 
-108.719 -86.7384 0 
-99.6596 -116.497 0 
-150.914 -95.4527 0 
-138.09 -104.916 0 
-145.081 -74.5712 0 
-160.739 -135.798 0 
-117.777 -72.3079 0 
-144.195 -117.392 0 
-151.836 -99.3053 0 
-182.331 -88.9733 0 
-172.621 -82.2974 0 
-181.076 -120.191 0 
-155.88 -76.1694 0 
-122.022 -82.6029 0 
-166.75 -88.1639 0 
-112.316 -66.5752 0 
-121.175 -100.299 0 
-151.054 -103.649 0 
-123.401 -89.4651 0 
-140.88 -105.969 0 
-103.391 -72.8371 0 
-108.377 -120.572 0 
-195.418 -98.1281 0 
-164.936 -109.83 0 
-147.973 -104.098 0 
-131.131 -105.999 0 
-131.138 -122.917 0 
-83.4036 103.614 0 
-99.8421 -101.224 0 
-134.598 -134.189 0 
-143.905 -82.5815 0 
-177.975 -86.9253 0 
-170.735 -64.065 0 
-185.951 -71.4147 0 
-176.641 -73.9382 0 
-172.846 -46.8111 0 
-187.067 -56.613 0 
-176.992 -72.1129 0 
-174.413 -91.7364 0 
-150.137 -105.601 0 
-113.173 -108.979 0 
-151.335 -109.588 0 
-140.146 -114.824 0 
-141.388 -79.9652 0 
-138.341 -63.7746 0 
-141.266 -76.0691 0 
-111.02 -47.4651 0 
-119.303 -90.1684 0 
-91.1452 -102.533 0 
-143.453 -119.735 0 
-97.3966 -113.816 0 
-91.0418 -49.9414 0 
-120.847 -72.0523 0 
-100.944 -57.4999 0 
-133.869 -104.478 0 
-137.333 -74.6975 0 
-133.512 -79.7105 0 
-87.2795 -66.1192 0 
-139.589 -73.0857 0 
-139.922 -103.798 0 
-145.188 -60.0211 0 
-146.174 -92.8989 0 
-171.839 -68.0691 0 
-169.082 -61.962 0 
-144.566 -89.703 0 
-137.272 -84.1844 0 
-157.825 -93.5757 0 
-141.819 -87.4622 0 
-132.065 -104.219 0 
-144.202 -93.6461 0 
-163.518 -62.1067 0 
-147.121 -66.6561 0 
-126.105 -63.3453 0 
-136.495 -84.0426 0 
-135.27 -94.9815 0 
-140.234 -66.5003 0 
-138.794 -106.513 0 
-132.263 -107.768 0 
-136.028 -84.5072 0 
-151.063 -54.6331 0 
-136.827 -81.875 0 
-145.848 -111.932 0 
-129.837 -63.0517 0 
-144.642 -106.307 0 
-130.205 -95.65 0 
-125.691 -69.2064 0 
-176.715 -39.9619 0 
-171.917 -42.9132 0 
-134.527 -69.0348 0 
-126.01 -53.503 0 
-107.878 -84.0025 0 
-144.138 -53.52 0 
-115.242 -65.9074 0 
-170.487 -59.2409 0 
-131.98 -59.8946 0 
-111.946 -70.6669 0 
-133.135 -69.0283 0 
-126.772 -27.2098 0 
-103.406 -101.446 0 
-120.118 -88.795 0 
-118.056 -71.4707 0 
-109.274 -95.7663 0 
-159.372 -48.7044 0 
-135.319 -67.0476 0 
-126.393 -93.2309 0 
-111.175 -79.6216 0 
-121.376 -73.7899 0 
-129.668 -75.3299 0 
-119.986 -88.9953 0 
-134.403 -88.5581 0 
-127.115 -89.4769 0 
-126.736 -61.9577 0 
-109.456 -85.5429 0 
-156.37 -78.2739 0 
-138.772 -50.028 0 
-120.61 -80.7218 0 
-105.275 -85.7421 0 
-134.854 -90.7217 0 
-122.109 -81.709 0 
-126.351 -68.8786 0 
-117.021 -98.6452 0 
-121.727 -88.259 0 
-121.222 -59.634 0 
-135.899 -69.0098 0 
-104.375 -62.6547 0 
-141.012 -69.9865 0 
-133.209 -63.6592 0 
-131.111 -60.8473 0 
-111.653 -85.4302 0 
-159.143 -67.6483 0 
-172.54 -56.7883 0 
-126.996 -90.5722 0 
-163.193 -41.3074 0 
-104.58 -92.9854 0 
-109.275 -80.0854 0 
-121.329 -91.9625 0 
-106.655 -82.4246 0 
-157.378 -95.4297 0 
-153.006 -79.9016 0 
-131.444 -71.0566 0 
-121.9 -79.4427 0 
-170.386 -68.5246 0 
-163.273 1.20597 0 
-167.162 11.6636 0 
-168.189 -29.0767 0 
-107.642 -64.1809 0 
-93.9016 -66.6196 0 
-109.19 -71.5285 0 
-144.648 -62.4251 0 
-98.1569 -73.3195 0 
-146.61 -88.2636 0 
-101.806 -34.9018 0 
-157.762 -47.5361 0 
-95.5741 -52.3068 0 
-156.218 -62.6752 0 
-120.585 -61.4049 0 
-126.651 -83.4439 0 
-136.177 -47.7733 0 
-119.087 -35.6739 0 
-133.847 -52.635 0 
-129.675 -41.3221 0 
-102.314 -49.6734 0 
-135.757 -70.1197 0 
-152.209 -80.5922 0 
-99.8131 -66.2175 0 
-128.961 -32.2511 0 
-102.736 -52.6798 0 
-131.775 -60.5521 0 
-153.267 -60.2101 0 
-130.367 -27.9152 0 
-115.064 -66.2603 0 
-144.586 -37.2109 0 
-135.435 -30.4925 0 
-131.733 -79.5666 0 
-149.802 -70.6577 0 
-154.497 -74.9674 0 
-131.36 -42.7156 0 
-155.582 -71.601 0 
-111.438 -48.6244 0 
-151.62 -56.9968 0 
-149.081 -39.7651 0 
-137.973 -42.3852 0 
-158.904 -64.0553 0 
-134.511 -64.4319 0 
-150.841 -48.2758 0 
-120.216 -46.9556 0 
-141.642 -76.2699 0 
-185.693 -45.0903 0 
-103.407 -44.3517 0 
-139.613 -32.4329 0 
-107.369 28.8205 0 
-124.986 -50.087 0 
-133.021 -56.7768 0 
-126.932 -9.76508 0 
-127.521 -63.613 0 
-141.684 -34.5506 0 
-127.901 -41.2702 0 
-149.018 -55.4325 0 
-150.711 -55.9399 0 
-125.816 -68.7511 0 
-155.609 -59.7526 0 
-132.721 -75.3583 0 
-160.904 -39.0886 0 
-124.253 -8.28811 0 
-101.714 -48.5059 0 
-105.956 -11.1274 0 
-129.289 -48.2607 0 
-125.967 -49.0676 0 
-147.336 -57.1444 0 
-148.859 -46.2501 0 
-173.701 -4.1136 0 
-165.79 -25.9521 0 
-110.352 -7.31299 0 
-120.284 -11.6554 0 
-132.29 -15.3807 0 
-114.089 -14.641 0 
-102.833 -13.2508 0 
-142.071 -10.0451 0 
-107.452 -5.14257 0 
-119.426 -1.42209 0 
-123.2 0.752856 0 
-165.309 -16.6883 0 
-132.182 -28.0004 0 
-121.352 -58.3281 0 
-123.59 -35.3818 0 
-111.877 -16.4124 0 
-135.002 -11.7196 0 
-127.981 3.59805 0 
-123.722 -21.1038 0 
-180.211 -10.6925 0 
-149.657 -25.3261 0 
-131.057 7.73536 0 
-129.288 -15.85 0 
-137.619 -35.4071 0 
-125.378 -42.2647 0 
-148.169 -15.9857 0 
-165.347 -11.8463 0 
-157.404 10.8592 0 
-103.705 -7.1397 0 
-101.614 0.436473 0 
-156.149 -7.57434 0 
-138.177 -20.7366 0 
-144.475 -50.2831 0 
-125.268 19.3892 0 
-113.81 -15.3924 0 
-129.576 -37.3531 0 
-111.329 -30.0635 0 
-123.022 -14.2384 0 
-103.591 -10.1041 0 
-131.384 1.00545 0 
-125.449 3.78241 0 
-120.251 -28.1657 0 
-128.253 -6.21747 0 
-103.788 -3.80032 0 
-139.397 -7.25831 0 
-123.662 11.3083 0 
-175.009 -39.2412 0 
-125.472 -12.2809 0 
-114.44 -28.2155 0 
-132.042 -3.14282 0 
-118.801 -8.89215 0 
-102.338 -16.3186 0 
-118.516 6.38289 0 
-133.996 -6.79077 0 
-111.472 -0.878091 0 
-126.262 -20.7979 0 
-137.682 -16.9188 0 
-152.939 -17.3729 0 
-115.611 -7.22272 0 
-138.499 -4.97626 0 
-110.226 -34.6476 0 
-109.335 6.65373 0 
-173.871 22.3666 0 
-158.406 -28.4952 0 
-118.882 -37.2147 0 
-113.395 -0.0921576 0 
-157.025 -15.4376 0 
-122.115 31.848 0 
-167.276 -32.4742 0 
-118.105 -4.31266 0 
-125.734 -43.1776 0 
-97.4589 7.01535 0 
-112.909 16.7877 0 
-122.623 14.2135 0 
-106.944 -25.1983 0 
-105.552 -7.80308 0 
-129.767 19.0507 0 
-96.8687 4.05588 0 
-139.965 20.1435 0 
-116.248 14.6435 0 
-106.279 30.4776 0 
-151.183 -12.8555 0 
-199.194 -3.71061 0 
-112.666 13.073 0 
-104.262 6.85131 0 
-157.793 36.8437 0 
-132.961 -36.9559 0 
-115.183 -2.01092 0 
-132.67 -13.3667 0 
-86.1609 12.0101 0 
-83.5385 36.2595 0 
-89.367 35.9065 0 
-117.777 21.5022 0 
-137.582 -139.429 0 
-112.869 9.11144 0 
-102.372 49.9238 0 
-118.835 1.04122 0 
-106.735 1.14849 0 
-123.108 48.8933 0 