<VTKFile type="UnstructuredGrid" version="0.1" byte_order="BigEndian">
  <UnstructuredGrid>
        <Piece NumberOfPoints="8000" NumberOfCells="0" Time= "0.175">      <Points>
        <DataArray name="Position" type="Float32"  NumberOfComponents= "3"  format="ascii">

99.2306 32.023 0 
101.624 10.3006 0 
101.223 9.94199 0 
101.294 10.2179 0 
101.683 11.4868 0 
99.8787 19.5528 0 
99.7837 19.2802 0 
100.472 18.7381 0 
100.918 19.3889 0 
101.31 21.4713 0 
101.707 20.2067 0 
101.538 22.3086 0 
99.8356 22.2402 0 
101.362 24.8361 0 
100.158 23.8149 0 
100.876 26.5383 0 
101.623 28.7043 0 
101.486 28.6964 0 
101.43 28.0299 0 
101.678 28.5483 0 
100.089 29.3562 0 
101.35 31.2197 0 
101.138 31.7867 0 
101.583 34.0027 0 
103.766 2.60266 0 
104.382 3.1827 0 
104.053 4.31426 0 
104.15 2.66621 0 
103.818 2.88056 0 
102.436 6.77076 0 
103.426 5.20569 0 
104.451 6.93979 0 
103.417 8.02202 0 
103.974 7.11018 0 
103.759 8.27988 0 
103.247 9.08178 0 
102.651 9.53518 0 
103.528 7.62335 0 
103.343 7.81589 0 
103.437 8.15684 0 
104.001 7.69818 0 
103.667 7.28958 0 
103.352 8.8115 0 
102.588 9.58139 0 
104.07 8.45469 0 
102.729 10.1679 0 
102.867 12.0627 0 
102.027 10.4282 0 
102.549 11.0706 0 
103.035 10.2586 0 
103.857 9.75976 0 
104.162 11.7202 0 
103.973 12.1577 0 
102.509 11.1039 0 
102.03 10.332 0 
101.754 10.293 0 
103.119 10.3451 0 
103.386 9.68267 0 
102.429 9.89803 0 
102.811 10.1368 0 
103.349 10.6446 0 
102.66 10.3124 0 
103.983 11.3302 0 
102.354 10.0772 0 
103.426 11.0484 0 
103.324 10.7037 0 
104.416 11.9443 0 
102.66 10.5932 0 
102.717 11.4093 0 
104.118 11.9908 0 
103.83 10.579 0 
102.11 10.7585 0 
103.452 10.8574 0 
104.401 14.5951 0 
104.241 13.5753 0 
102.465 12.9274 0 
103.942 12.6666 0 
102.895 12.6617 0 
103.961 12.4464 0 
104.038 14.0233 0 
103.566 12.6045 0 
103.352 14.7253 0 
103.293 12.5713 0 
103.614 12.2462 0 
104.244 13.482 0 
103.158 13.2449 0 
101.856 12.6054 0 
104.157 16.1664 0 
103.463 16.2803 0 
103.01 15.9102 0 
103.954 17.032 0 
103.438 17.8009 0 
103.922 18.0164 0 
104.25 19.222 0 
104.358 19.6105 0 
104.194 19.399 0 
103.453 17.9336 0 
103.515 19.1566 0 
103.735 18.564 0 
104.035 19.4793 0 
103.092 19.8112 0 
102.886 20.749 0 
102.452 21.8642 0 
104.036 20.6035 0 
103.661 20.98 0 
102.321 20.8488 0 
103.447 22.2176 0 
103.748 24.0313 0 
102.628 25.0586 0 
102.339 24.5224 0 
104.372 25.0967 0 
103.751 25.1426 0 
102.651 24.8875 0 
104.245 23.6265 0 
101.978 25.2117 0 
103.804 25.2874 0 
101.964 26.2164 0 
101.851 25.5559 0 
101.854 25.5673 0 
103.177 25.2981 0 
102.162 25.8342 0 
104.055 27.7661 0 
103.203 27.3632 0 
103.264 25.3583 0 
103.544 26.6654 0 
104.042 28.7887 0 
103.619 28.0751 0 
104.484 29.8373 0 
102.212 30.122 0 
102.901 32.1309 0 
102.891 31.9828 0 
102.093 31.6302 0 
103.619 32.2984 0 
106.895 1.62211 0 
104.481 2.70832 0 
106.238 2.57198 0 
106.289 3.05368 0 
105.146 2.35325 0 
104.379 4.00074 0 
106.073 2.7902 0 
104.451 3.95509 0 
105.235 3.35881 0 
105.528 2.93827 0 
106.685 3.2237 0 
104.91 3.64576 0 
105.923 2.78947 0 
104.927 3.19597 0 
104.988 2.54335 0 
105.152 2.67217 0 
106.435 2.41387 0 
104.706 3.37125 0 
106.949 3.5801 0 
105.749 3.84001 0 
106.372 6.81239 0 
106.307 6.12921 0 
106.83 5.48976 0 
104.59 4.99566 0 
106.093 4.67317 0 
105.881 6.11196 0 
106.512 5.96608 0 
105.852 6.37837 0 
104.644 5.68993 0 
106.186 5.39609 0 
104.564 5.83695 0 
105.842 6.10002 0 
105.798 4.91572 0 
107.062 5.98138 0 
105.958 6.48943 0 
105.15 5.2899 0 
105.59 5.12905 0 
106.801 6.80503 0 
105.627 6.68496 0 
106.539 6.79432 0 
106.245 6.82073 0 
106.387 5.91673 0 
105.504 5.96583 0 
106.33 8.93312 0 
106.405 7.8824 0 
105.985 7.80905 0 
106.397 8.00409 0 
104.823 9.40605 0 
106.478 7.78098 0 
104.842 9.39546 0 
106.524 8.60815 0 
106.376 9.57425 0 
104.581 9.23042 0 
106.64 7.37048 0 
106.916 7.37328 0 
105.202 8.02419 0 
104.368 9.08602 0 
106.618 8.68582 0 
106.527 9.00495 0 
104.53 9.32685 0 
106.622 8.01464 0 
105.294 7.34903 0 
105.817 8.52336 0 
104.633 7.59173 0 
106.759 8.45148 0 
106.17 8.84629 0 
106.254 9.42813 0 
106.742 8.01383 0 
106.919 8.84185 0 
106.509 8.89906 0 
106.203 8.99204 0 
106.702 7.68432 0 
104.975 7.93463 0 
104.619 9.02073 0 
104.942 7.54698 0 
105.64 9.31299 0 
106.385 8.38566 0 
105.264 7.70466 0 
106.052 8.04318 0 
106.341 8.38468 0 
106.707 8.01201 0 
105.961 6.9539 0 
106.042 8.33768 0 
106.627 7.60952 0 
105.01 8.68092 0 
106.452 10.6706 0 
105.946 12.301 0 
106.121 10.762 0 
104.905 9.97296 0 
105.423 10.9925 0 
106.236 11.6115 0 
105.524 10.4649 0 
106.847 10.1797 0 
106.849 10.736 0 
105.034 11.6587 0 
106.323 12.0629 0 
105.931 11.9345 0 
106.774 11.9147 0 
106.8 10.6144 0 
105.581 11.4361 0 
106.733 11.4579 0 
106.275 11.4773 0 
105.931 11.3559 0 
105.551 11.0717 0 
105.29 11.8155 0 
106.261 11.2357 0 
106.157 9.59272 0 
104.538 11.5611 0 
104.929 9.97824 0 
105.651 10.4472 0 
106.24 12.271 0 
106.235 11.3306 0 
105.296 11.2636 0 
106.577 11.7443 0 
106.767 11.9577 0 
104.779 10.0958 0 
106.214 11.6663 0 
105.899 12.1619 0 
106.33 10.1398 0 
105.23 10.0773 0 
106.897 11.2518 0 
105.792 10.19 0 
105.452 14.0802 0 
106.085 13.9087 0 
106.08 12.5545 0 
105.368 13.4813 0 
105.916 12.8243 0 
106.879 14.5051 0 
106.459 13.1376 0 
105.686 14.2061 0 
104.983 12.8129 0 
106.951 12.8977 0 
106.518 12.6883 0 
105.945 14.6209 0 
105.419 13.8496 0 
106.239 14.2149 0 
106.315 13.9605 0 
106.648 14.4324 0 
106.173 12.9327 0 
106.456 13.2093 0 
104.971 12.8269 0 
106.109 12.6388 0 
106.013 12.6197 0 
104.65 13.7292 0 
106.135 12.8074 0 
106.133 12.682 0 
105.96 12.8281 0 
106.185 13.7337 0 
106.369 12.3055 0 
106.908 14.4653 0 
105.193 12.6507 0 
104.497 14.4977 0 
105.052 13.0994 0 
105.966 13.6189 0 
105.931 12.8322 0 
106.33 12.6979 0 
105.995 13.0522 0 
104.613 13.7771 0 
104.65 13.1295 0 
105.869 13.6018 0 
106.801 13.0437 0 
106.123 12.8522 0 
104.685 12.9227 0 
105.373 13.3974 0 
104.379 14.1875 0 
106.992 12.8247 0 
104.868 12.9468 0 
105.578 12.3746 0 
106.247 15.9711 0 
107.038 14.8567 0 
106.12 16.4941 0 
105.288 14.9702 0 
106.768 15.9904 0 
106.958 16.4445 0 
106.577 17.4215 0 
106.502 16.3838 0 
106.3 15.2174 0 
106.14 16.5428 0 
106.424 15.6 0 
106.155 16.2378 0 
104.586 16.6022 0 
105.808 15.7369 0 
106.788 16.1588 0 
106.303 15.722 0 
106.739 17.0822 0 
106.698 15.9441 0 
105.402 17.2359 0 
106.578 16.7749 0 
104.484 16.035 0 
105.801 15.5898 0 
106.278 15.7862 0 
106.081 16.2592 0 
106.732 16.499 0 
104.853 15.8772 0 
106.315 16.3193 0 
106.246 16.5258 0 
106.702 16.2677 0 
106.638 16.5562 0 
106.812 15.6729 0 
104.706 17.1904 0 
105.69 17.0464 0 
106.568 16.4514 0 
106.867 16.9113 0 
106.777 17.0431 0 
105.842 16.5886 0 
106.166 16.5542 0 
106.045 14.9386 0 
104.41 16.8067 0 
104.621 15.9248 0 
105.547 16.1202 0 
105.238 17.7057 0 
106.62 18.1781 0 
105.58 19.8933 0 
104.646 19.0484 0 
106.455 19.2685 0 
104.571 18.7507 0 
106.55 18.387 0 
105.199 19.3039 0 
104.667 18.6371 0 
106.449 18.8796 0 
106.258 17.5875 0 
106.229 17.9717 0 
106.527 17.6272 0 
104.694 17.8857 0 
105.991 18.9299 0 
106.119 21.1742 0 
104.808 22.4993 0 
106.715 20.5865 0 
106.389 22.5409 0 
105.163 21.3233 0 
105.092 21.932 0 
106.584 21.5824 0 
105.713 21.414 0 
106.151 20.8005 0 
106.438 24.3284 0 
106.885 24.733 0 
104.81 24.6014 0 
106.172 24.7237 0 
106.899 24.7756 0 
106.753 24.798 0 
104.744 24.941 0 
106.158 23.5136 0 
106.075 22.7026 0 
106.188 24.1101 0 
106.188 25.3818 0 
105.539 24.502 0 
105.365 23.7944 0 
104.549 23.3087 0 
106.984 26.5109 0 
106.581 25.8385 0 
106.241 25.6622 0 
106.797 27.0537 0 
106.335 25.7368 0 
106.989 26.4392 0 
106.398 26.1936 0 
105.772 25.8115 0 
106.639 27.8579 0 
105.081 26.983 0 
105.319 27.4321 0 
105.197 25.4849 0 
105.63 30.3146 0 
105.081 29.7061 0 
106.805 28.7985 0 
106.854 27.9257 0 
105.463 29.9492 0 
105.74 29.1133 0 
106.88 27.8778 0 
105.047 30.267 0 
104.61 29.3973 0 
106.205 28.5293 0 
106.035 28.2078 0 
106.382 29.2608 0 
105.753 29.1624 0 
105.221 30.7621 0 
105.75 32.3715 0 
105.491 31.489 0 
106.012 31.6463 0 
106.152 31.4061 0 
105.457 31.649 0 
104.559 30.6913 0 
106.377 31.4045 0 
104.537 32.3105 0 
106.374 31.3364 0 
107.053 30.5928 0 
106.29 34.3875 0 
109.312 37.6666 0 
109.067 0.897943 0 
109.538 1.05799 0 
108.749 3.84654 0 
107.915 3.04732 0 
109.631 4.25142 0 
107.373 2.81013 0 
109.43 3.44786 0 
107.608 4.44249 0 
108.571 4.26704 0 
107.361 2.71582 0 
107.705 2.7008 0 
109.585 3.20121 0 
108.649 2.58579 0 
107.188 4.29329 0 
109.26 6.58853 0 
106.958 6.0648 0 
108.016 6.95312 0 
106.973 6.00984 0 
107.474 6.10483 0 
107.692 6.77061 0 
109.009 6.71085 0 
107.32 5.42267 0 
108.763 6.02518 0 
107.442 4.99795 0 
108.792 6.10331 0 
108.673 6.84497 0 
109.345 6.64076 0 
108.771 5.02864 0 
108.312 4.94844 0 
109.213 6.22162 0 
108.37 6.26699 0 
109.144 5.88546 0 
108.129 6.00523 0 
108.879 6.6527 0 
109.391 7.01397 0 
107.7 6.91352 0 
109.227 6.68077 0 
109.058 6.79769 0 
107.906 4.36995 0 
107.724 7.57768 0 
108.412 7.80093 0 
108.867 8.56666 0 
107.8 7.78621 0 
108.849 8.32652 0 
108.217 7.86654 0 
107.428 7.83213 0 
109.425 6.92876 0 
107.596 7.11736 0 
107.464 7.43623 0 
109.403 7.03205 0 
107.815 8.08448 0 
108.116 7.99535 0 
107.785 7.26244 0 
107.916 8.592 0 
108.66 8.66376 0 
109.058 8.69667 0 
107.432 9.36613 0 
107.482 7.50703 0 
108.889 8.34569 0 
109.413 8.15776 0 
108.208 8.69793 0 
109.4 9.45003 0 
107.591 9.00618 0 
108.157 7.83767 0 
109.088 7.38358 0 
108.952 8.06447 0 
109.035 8.3739 0 
107.252 7.94136 0 
107.497 7.21187 0 
108.097 7.41564 0 
107.354 7.77173 0 
107.637 7.54342 0 
107.756 7.61968 0 
108.636 7.10853 0 
107.615 7.29317 0 
107.278 7.65431 0 
107.263 7.55762 0 
106.992 8.21891 0 
107.547 9.44964 0 
107.944 7.43205 0 
108.589 8.95076 0 
109.005 7.25262 0 
109.383 7.1643 0 
107.634 7.64059 0 
107.51 7.91239 0 
108.894 7.97137 0 
108.933 9.65275 0 
108.912 7.10406 0 
108.263 8.47405 0 
108.933 8.04671 0 
107.378 7.83187 0 
107.597 9.42913 0 
107.751 7.6957 0 
109.414 7.66207 0 
108.894 8.0147 0 
107.79 7.85746 0 
107.977 6.94388 0 
108.794 8.93574 0 
109.133 8.07756 0 
[...]
      <PointData Vectors="vector">
        <DataArray type="Float32" Name="Velocity" NumberOfComponents="3" format="ascii">

-150.268 -1.83269 0 
-163.505 -15.3466 0 
-131.982 57.4899 0 
-123.66 119.529 0 
-153.027 -100.359 0 
-172.202 -97.6935 0 
-141.217 -104.205 0 
-170.706 -95.8878 0 
-163.956 -81.6072 0 
-163.833 -87.5255 0 
-165.865 -93.2846 0 
-136.706 -97.381 0 
-171.635 -84.2847 0 
-160.394 -39.8985 0 
-159.947 -96.1299 0 
-127.939 -32.7453 0 
-137.81 -45.8109 0 
-142.441 -3.45642 0 
-133.221 -7.19726 0 
-131.217 29.0402 0 
-111.584 17.6308 0 
-129.838 36.8154 0 
-79.7071 0.780517 0 
-116.53 30.3766 0 
-103.789 53.7889 0 
-152.11 15.1471 0 
-161.013 2.30369 0 
-132.51 33.126 0 
-134.328 70.5276 0 
-158.631 24.9192 0 
-158.52 25.3316 0 
-154.739 61.9973 0 
-110.05 65.0222 0 
-126.864 103.632 0 
-103.273 83.8248 0 
-162.171 60.86 0 
-116.008 94.138 0 
-124.896 91.8927 0 
-124.032 100.459 0 
-102.906 106.351 0 
-131.82 110.166 0 
-121.432 82.2299 0 
-111.166 101.118 0 
-130.14 -127.613 0 
-137.755 -136.27 0 
-124.914 -103.141 0 
-128.529 -93.13 0 
-116.379 -130.97 0 
-124.352 -92.9508 0 
-138.133 -86.1126 0 
-141.657 -145.021 0 
-136.959 -134.686 0 
-140.844 -146.446 0 
-135.879 -110.591 0 
-95.9287 -139.454 0 
-121.71 -116.792 0 
-144.001 -100.739 0 
-130.301 -95.5086 0 
-131.324 -83.5446 0 
-148.962 -109.929 0 
-138.634 -59.0447 0 
-97.3557 -77.9802 0 
-152.683 -98.4087 0 
-136.656 -91.5613 0 
-121.534 -104.754 0 
-134.94 -56.3126 0 
-122.312 -112.202 0 
-140.152 -101.686 0 
-152.183 -93.6393 0 
-112.819 -108.559 0 
-131.62 -91.8886 0 
-151.89 -104.221 0 
-143.418 -50.7407 0 
-128.214 -67.9952 0 
-153.43 -100.234 0 
-155.044 -93.6766 0 
-138.148 -94.3651 0 
-137.508 -80.947 0 
-139.765 -98.3018 0 
-135.665 -64.1943 0 
-125.194 -102.001 0 
-123.33 -63.1607 0 
-145.469 -55.4557 0 
-120.491 -83.0162 0 
-152.106 -65.0781 0 
-121.618 -76.7659 0 
-155.614 -87.9596 0 
-140.839 -76.0911 0 
-154.625 -54.552 0 
-151.176 -91.9016 0 
-110.011 -76.0047 0 
-119.013 -45.7014 0 
-154.405 -52.8433 0 
-144.325 -97.2455 0 
-154.426 -82.6 0 
-145.623 -74.171 0 
-157.646 -83.5953 0 
-128.897 -52.324 0 
-135.914 -44.9774 0 
-108.078 -71.5019 0 
-121.982 -60.9523 0 
-143.868 -73.4489 0 
-104.845 -69.2027 0 
-102.198 -43.0538 0 
-152.711 -47.613 0 
-106.578 -95.0657 0 
-121.209 -61.0553 0 
-104.78 -53.2968 0 
-128.977 -63.6226 0 
-151.851 -72.5561 0 
-115.451 -39.3049 0 
-116.237 11.2753 0 
-114.178 -32.3616 0 
-123.041 -48.8751 0 
-133.485 -37.7019 0 
-120.606 -35.5883 0 
-146.09 -80.8234 0 
-113.502 6.63599 0 
-133.444 -42.9953 0 
-130.05 -68.2788 0 
-114.018 -44.6996 0 
-119.948 -49.0052 0 
-131.349 -27.1831 0 
-123.483 -24.5294 0 
-127.205 -35.7903 0 
-127.721 -22.58 0 
-130.982 -38.5504 0 
-118.162 -52.7205 0 
-143.253 -43.5024 0 
-127.642 8.94006 0 
-141.539 -7.04281 0 
-140.133 -21.8117 0 
-115.239 -16.0413 0 
-108.547 7.1893 0 
-143.321 6.37054 0 
-133.315 -2.62288 0 
-111.754 -3.01917 0 
-124.254 -17.7022 0 
-121.077 3.0952 0 
-96.1027 -12.0928 0 
-137.139 26.7464 0 
-124.588 13.4343 0 
-142.569 9.89048 0 
-124.568 1.59799 0 
-142.397 12.5812 0 
-161.068 -8.0599 0 
-127.005 -15.4339 0 
-126.829 -23.9474 0 
-128.783 -15.5644 0 
-121.187 -12.6729 0 
-91.5421 9.78767 0 
-105.956 28.6219 0 
-106.839 -52.7603 0 
-147.582 3.11808 0 
-113.367 -0.869177 0 
-140.983 53.832 0 
-129.289 21.778 0 
-121.711 41.7178 0 
-77.6834 42.6527 0 
-118.229 54.0926 0 
-118.718 20.3961 0 
-119.388 32.2372 0 
-95.9694 68.3846 0 
-90.8729 1.64341 0 
-111.026 35.6507 0 
-117.339 28.6052 0 
-95.7586 67.7763 0 
-117.042 37.383 0 
-94.6631 75.3715 0 
-74.313 70.0969 0 
-89.6014 59.2946 0 
-115.14 60.8556 0 
-89.9676 102.586 0 
-100.696 111.999 0 
-92.4256 97.2901 0 
-99.9729 82.377 0 
-101.845 121.721 0 
-94.8912 95.9461 0 
-99.8058 -143.681 0 
-84.2893 -124.372 0 
-96.3584 -153.275 0 
-99.4429 -121.472 0 
-105.254 -131.915 0 
-115.508 -137.329 0 
-104.539 -121.514 0 
-89.7264 -72.2536 0 
-112.847 -102.957 0 
-113.274 -110.557 0 
-90.3088 -115.508 0 
-92.6777 -126.648 0 
-103.11 -129.708 0 
-77.7379 -114.939 0 
-110.812 -126.053 0 
-94.1934 -132.344 0 
-74.8735 -115.051 0 
-109.541 -122.867 0 
-112.345 -147.674 0 
-117.794 -76.9862 0 
-128.064 -118.576 0 
-107.386 -110.603 0 
-118.125 -79.9103 0 
-93.6418 -110.859 0 
-99.7945 -110.225 0 
-124.266 -95.7811 0 
-131.021 -95.6195 0 
-76.8465 -69.9392 0 
-115.073 -130.446 0 
-111.924 -86.5621 0 
-92.9681 -110.093 0 
-111.441 -105.596 0 
-103.398 -100.729 0 
-131.389 -64.9959 0 
-115.418 -124.172 0 
-91.2118 -75.3414 0 
-103.168 -87.434 0 
-58.0471 -70.3498 0 
-133.398 -110.394 0 
-134.573 -96.3335 0 
-101.243 -99.4779 0 
-116.941 -112.42 0 
-139.147 -114.971 0 
-112.879 -94.0191 0 
-90.6898 -104.803 0 
-127.365 -118.944 0 
-108.179 -99.5071 0 
-120.268 -100.239 0 
-112.831 -87.9946 0 
-97.8595 -68.3164 0 
-109.486 -79.5568 0 
-137.43 -69.2029 0 
-100.476 -74.3682 0 
-145.21 -74.6152 0 
-147.851 -91.4572 0 
-72.7227 -54.5567 0 
-114.563 -64.251 0 
-107.375 -117.553 0 
-98.6509 -131.193 0 
-108.044 -75.4164 0 
-146.515 -54.2376 0 
-109.513 -68.3465 0 
-123.142 -70.4195 0 
-132.727 -68.6098 0 
-113.448 -106.975 0 
-111.581 -110.335 0 
-108.915 -93.4758 0 
-126.515 -70.319 0 
-81.4147 -74.5861 0 
-113.776 -88.0738 0 
-107.536 -72.0129 0 
-103.458 -65.7712 0 
-96.7061 -60.4502 0 
-133.777 -73.1866 0 
-115.657 -57.2883 0 
-125.813 -71.1439 0 
-103.064 -63.2276 0 
-118.602 -103.553 0 
-110.99 -68.3323 0 
-91.2737 -118.69 0 
-93.4061 -91.8603 0 
-124.771 -87.6862 0 
-135.418 -117.078 0 
-131.09 -99.3146 0 
-130.217 -70.0126 0 
-128.427 -70.8187 0 
-136.177 -46.4485 0 
-145.641 -52.2992 0 
-82.6526 -59.69 0 
-120.064 -63.2507 0 
-73.9477 -76.8892 0 
-123.142 -98.1661 0 
-148.861 -69.588 0 
-133.902 -89.9771 0 
-107.292 -101.993 0 
-114.907 -75.8568 0 
-112.447 -60.8201 0 
-141.608 -39.8064 0 
-150.698 -67.2382 0 
-97.2783 -87.9999 0 
-124.894 -59.9884 0 
-117.06 -36.0673 0 
-129.002 -59.6871 0 
-115.951 -67.6411 0 
-99.6157 -57.976 0 
-73.1407 -83.2786 0 
-63.1726 -60.2559 0 
-69.7645 -50.2103 0 
-133.873 -81.6792 0 
-94.5952 -52.7556 0 
-97.896 -83.4224 0 
-115.15 -72.873 0 
-82.4006 -86.6605 0 
-112.734 -76.7727 0 
-82.019 -68.5187 0 
-102.728 -81.5553 0 
-100.889 -67.4887 0 
-118.277 -75.9344 0 
-105.68 -49.8379 0 
-120.957 -75.5285 0 
-101.358 -56.6929 0 
-99.8507 -39.1222 0 
-110.963 -72.845 0 
-142.779 -78.7267 0 
-84.7381 -82.3365 0 
-102.008 -74.3065 0 
-150.811 -91.3808 0 
-121.694 -52.8862 0 
-116.456 -39.689 0 
-107.126 -57.587 0 
-129.217 -35.5163 0 
-115.287 -89.5487 0 
-104.771 -82.4316 0 
-124.143 -56.8078 0 
-127.856 -59.9375 0 
-82.6274 -63.1202 0 
-116.888 -32.9167 0 
-120.921 -93.6064 0 
-69.2672 -96.3221 0 
-93.2044 -42.4654 0 
-98.4286 -43.1002 0 
-108.288 -48.6448 0 
-92.2358 -37.9578 0 
-96.9831 -41.7436 0 
-78.9406 -32.8009 0 
-81.7619 -18.6763 0 
-105.699 -35.6831 0 
-87.3062 -21.8893 0 
-96.1603 -45.4857 0 
-138.716 -25.4163 0 
-114.208 -44.5316 0 
-133.14 -64.0777 0 
-125.386 -32.3539 0 
-112.537 -46.6322 0 
-103.283 -5.6651 0 
-87.5648 -72.7809 0 
-77.8359 -58.3006 0 
-102.277 -32.9517 0 
-96.7088 -36.3434 0 
-91.5221 -55.3554 0 
-76.8447 -29.7018 0 
-129.445 -63.9543 0 
-103.895 -45.1483 0 
-124.539 -35.5504 0 
-128.402 -34.9661 0 
-105.7 -32.0341 0 
-75.7726 -53.8009 0 
-99.6435 -49.4994 0 
-118.467 -38.7098 0 
-101.24 -78.871 0 
-134.145 -66.0809 0 
-104.455 -15.3709 0 
-98.1084 -7.34714 0 
-82.3348 -29.7637 0 
-115.127 -42.6137 0 
-112.163 -46.9495 0 
-116.42 -16.5741 0 
-80.0971 -33.3832 0 
-98.3066 -6.64033 0 
-120.613 -26.623 0 
-107.419 -62.0565 0 
-108.415 -44.3748 0 
-71.0729 -38.5936 0 
-135.118 -21.1062 0 
-84.3521 -44.8933 0 
-132.965 -64.4742 0 
-89.2379 -49.1558 0 
-92.5232 -30.5618 0 
-122.025 -63.8342 0 
-138.316 -25.9001 0 
-113.854 -30.4751 0 
-119.356 -19.7529 0 
-116.172 -4.68572 0 
-101.91 15.4847 0 
-92.178 -6.60175 0 
-122.695 26.4452 0 
-123.651 -29.1523 0 
-134.877 -59.7179 0 
-124.492 17.0583 0 
-117.604 -26.6134 0 
-113.957 -28.2844 0 
-140.14 -49.4194 0 
-128.311 -31.3911 0 
-117.459 -12.0784 0 
-97.5183 -1.10328 0 
-132.588 -19.4104 0 
-117.346 13.4634 0 
-115.348 -52.4514 0 
-127.287 15.6545 0 
-112.362 -41.2583 0 
-89.5861 -23.8861 0 
-132.142 -61.8824 0 
-126.534 -24.1714 0 
-126.859 -19.6885 0 
-107.188 -20.4235 0 
-118.25 -11.8964 0 
-107.635 4.24994 0 
-112.969 8.54911 0 
-101.477 -26.9724 0 
-117.131 -15.1141 0 
-109.349 -17.0222 0 
-107.714 9.30016 0 
-122.514 -39.6759 0 
-97.8097 -8.70291 0 
-131.225 -0.813041 0 
-116.923 -47.6983 0 
-101.357 11.481 0 
-101.623 -29.3478 0 
-79.5023 0.543543 0 
-121.469 2.80708 0 
-98.2673 0.216186 0 
-119.955 -51.3422 0 
-128.91 -34.3363 0 
-108.604 1.97231 0 
-94.0027 -6.08533 0 
-113.691 -15.4986 0 
-116.952 12.8503 0 
-104.541 -60.0652 0 
-120.476 30.5583 0 
-102.467 -4.63283 0 
-135.665 -36.2687 0 
-132.972 -7.74411 0 
-143.307 45.971 0 
-141.35 -50.9342 0 
-136.354 -22.338 0 
-121.348 -6.95473 0 
-119.278 16.6036 0 
-134.013 -14.5921 0 
-103.462 3.0472 0 
-117.847 -47.7433 0 
-104.628 -8.40517 0 
-93.6618 -24.2839 0 
-112.913 -20.6176 0 
-116.973 -1.5007 0 
-99.6042 -0.303277 0 
-107.317 -6.78122 0 
-97.5295 -19.4671 0 
-112.845 35.4756 0 
-132.679 46.6037 0 
-112.092 21.0026 0 
-94.0656 40.2408 0 
-73.1285 7.69928 0 
-144.057 41.0184 0 
-101.618 58.0702 0 
-113.229 43.8081 0 
-128.591 59.5173 0 
-133.766 44.6021 0 
-96.5108 50.096 0 
-101.594 56.6223 0 
-140.386 76.2221 0 
-134.507 8.64337 0 
-126.318 49.2451 0 
-64.5716 29.8511 0 
-137.166 53.4153 0 
-77.5966 9.18012 0 
-94.22 15.0318 0 
-118.294 60.114 0 
-128.475 59.9997 0 
-89.5653 46.4129 0 
-109.415 62.7498 0 
-128.529 58.6365 0 
-101.702 62.4048 0 
-120.473 49.5465 0 
-103.162 14.0549 0 
-99.5204 47.6148 0 
-124.778 68.1618 0 
-80.6325 88.4551 0 
-91.7789 61.2925 0 
-103.928 53.2731 0 
-93.7785 52.4736 0 
-112.111 34.7182 0 
-145.668 77.4447 0 
-75.9708 48.6528 0 
-108.549 81.796 0 
-108.361 101.147 0 
-101.497 60.6075 0 
-120.935 64.2182 0 
-113.869 50.1952 0 
-81.4844 59.4734 0 
-123.168 67.4816 0 
-90.2221 65.3382 0 
-88.6232 70.8478 0 
-101.434 61.54 0 
-84.2191 87.0125 0 
-108.65 116.09 0 
-100.518 100.1 0 
-101.325 124.022 0 
-110.762 128.681 0 
-106.35 118.758 0 
-96.3773 119.042 0 
-107.738 110.046 0 
-76.5717 98.6228 0 
-82.4091 97.3901 0 
-77.5822 87.9929 0 
-69.1977 113.948 0 
-118.056 -104.041 0 
-148.559 -121.241 0 
-89.8476 -113.159 0 
-47.4449 -130.657 0 
-88.2424 -137.744 0 
-156.708 -98.5559 0 
-155.473 -87.1347 0 
-83.5755 -126.149 0 
-97.3035 -130.077 0 
-94.1394 -136.095 0 
-72.4144 -94.3484 0 
-52.7037 -90.8755 0 
-83.5671 -79.6735 0 
-79.7089 -120.538 0 
-113.796 -118.168 0 
-79.3084 -110.325 0 
-103.614 -91.134 0 
-149.375 -89.5324 0 
-105.906 -151.983 0 
-86.4864 -142.828 0 
-65.5636 -114.442 0 
-49.098 -132.678 0 
-117.848 -127.137 0 
-132 -82.5925 0 
-117.154 -82.3884 0 
-110.414 -69.6742 0 
-126.427 -78.3903 0 
-71.8201 -106.269 0 
-98.8958 -90.0222 0 
-104.399 -106.71 0 
-112.453 -133.145 0 
-142.273 -88.4006 0 
-98.2535 -124.984 0 
-110.564 -97.3139 0 
-65.7074 -98.4554 0 
-117.377 -132.673 0 
-81.6212 -79.8005 0 
-136.029 -137.99 0 
-97.1824 -110.546 0 
-110.148 -112.94 0 
-106.812 -103.116 0 
-105.306 -107.184 0 
-92.0937 -104.07 0 
-96.702 -100.687 0 
-91.884 -100.046 0 
-72.5467 -114.694 0 
-97.8661 -103.839 0 
-86.8773 -123.911 0 
-119.425 -88.579 0 
-108.391 -121.325 0 
-108.592 -108.039 0 
-83.4225 -95.2283 0 
-115.725 -88.5438 0 
-109.859 -92.8802 0 
-111.457 -116.142 0 
-84.4771 -97.0175 0 
-104.242 -115.327 0 
-95.2333 -99.4366 0 
-140.404 -97.2448 0 
-107.618 -97.5866 0 
-93.5595 -104.418 0 
-118.95 -101.655 0 
-104.262 -84.1367 0 
-107.948 -88.8727 0 
-106.336 -94.4235 0 
-111.854 -104.03 0 
-104.113 -118.074 0 
-119.495 -134.353 0 
-110.846 -94.749 0 
-89.8466 -96.4944 0 
-73.7026 -114.515 0 
-91.5533 -87.8631 0 
-73.2824 -99.517 0 
-80.0526 -111.196 0 
-137.457 -128.863 0 
-136.269 -67.7431 0 
-85.6102 -64.2627 0 
-88.7515 -110.646 0 
-119.4 -72.4235 0 
-97.1213 -73.6111 0 
-69.2324 -88.8321 0 
-78.0273 -112.278 0 
-115.091 -88.3215 0 
-107.282 -67.6462 0 
-98.474 -67.794 0 
-114.274 -101.716 0 
-78.85 -90.68 0 
-99.5108 -78.4188 0 
-67.8147 -83.9595 0 
-129.295 -72.4524 0 
-113.708 -74.71 0 
-74.9211 -88.6032 0 
-101.826 -61.2365 0 
-126.245 -67.323 0 
-117.756 -64.2287 0 
-97.3384 -70.0222 0 
-79.8933 -97.8777 0 
-68.9808 -93.7636 0 
-109.686 -70.7975 0 
-94.9375 -76.9448 0 
-117.947 -86.797 0 
-104.851 -68.2203 0 
-90.2525 -61.4389 0 
-101.656 -60.9437 0 
-81.1744 -78.0231 0 
-125.838 -83.5881 0 
-64.6692 -90.7853 0 
-86.3962 -61.9031 0 
-100.488 -70.5185 0 
-115.075 -68.7982 0 
-107.956 -100.571 0 
-123.767 -63.9266 0 
-85.7391 -77.3776 0 
-65.7069 -92.6576 0 
-75.1095 -78.2323 0 
-87.027 -124.201 0 
-91.8085 -86.3831 0 
-71.2649 -103.318 0 
-92.4732 -118.894 0 
-93.7773 -58.0593 0 
-123.928 -83.3649 0 
-75.6197 -107.595 0 
-116.485 -59.4601 0 
-79.4529 -98.6884 0 
-83.9031 -65.2748 0 
-103.858 -81.0626 0 
-135.063 -86.2877 0 
-87.9621 -77.8599 0 
-105.527 -76.3559 0 
-88.5227 -46.3478 0 
-95.0506 -80.9729 0 
-110.78 -87.4738 0 
-69.2529 -88.9316 0 
-91.0604 -73.1288 0 
-113.489 -96.2873 0 
-89.1594 -77.3444 0 
-89.4551 -80.2119 0 
-115.473 -51.5273 0 
-78.1875 -107.459 0 
-92.4082 -69.5786 0 
-82.9232 -76.9385 0 
-67.1606 -83.5183 0 
-90.5113 -75.4378 0 
-94.6392 -71.8848 0 
-80.2154 -81.3215 0 
-129.253 -60.0677 0 
-107.766 -68.0913 0 
-113.216 -60.2833 0 
-81.4381 -56.1684 0 
-109.291 -69.397 0 
-66.6574 -98.1885 0 
-78.6288 -90.3398 0 
-62.2464 -96.8707 0 
-92.0208 -84.765 0 
-85.4282 -81.7802 0 
-74.6108 -68.6764 0 
-95.141 -56.1762 0 
-110.711 -57.06 0 
-82.6707 -75.898 0 
-93.3924 -56.5844 0 
-113.189 -60.3463 0 
-114.152 -58.2849 0 
-106.877 -61.6523 0 
-99.0461 -42.5412 0 
-103.209 -50.9422 0 
-52.4318 -86.2369 0 
-134.108 -54.111 0 
-91.5429 -62.4093 0 
-110.993 -53.1283 0 
-103.522 -48.6003 0 
-100.331 -42.676 0 
-93.6696 -50.8928 0 
-92.7175 -75.2904 0 
-91.2636 -77.9009 0 
-122.887 -49.518 0 
-90.516 -67.4444 0 
-96.0687 -52.3193 0 
-75.5138 -70.365 0 
-125.368 -47.7012 0 
-85.2433 -54.9311 0 
-130.369 -57.3457 0 
-127.231 -44.1279 0 
-59.8801 -56.8086 0 
-90.1534 -42.2005 0 
-124.094 -28.3729 0 
-114.363 -20.0847 0 
-125.764 -66.1655 0 
-117.867 -59.8672 0 
-89.27 -78.6819 0 
-105.193 -49.4914 0 
-122.042 -59.424 0 
-94.4923 -39.3547 0 
-103.987 -60.1273 0 
-105.884 -53.8099 0 
-96.4514 -75.4407 0 
-89.4067 -59.7414 0 
-114.453 -39.0071 0 
-105.314 -62.4441 0 
-99.2581 -39.8672 0 
-96.8929 -53.3226 0 
-86.2772 -62.3876 0 
-88.8864 -53.5348 0 
-86.2027 -67.613 0 
-116.04 -72.403 0 
-73.2186 -55.1577 0 
-132.284 -37.2862 0 
-77.6925 -83.8705 0 
-120.848 -67.5567 0 
-92.7654 -79.5591 0 
-95.7763 -55.9856 0 
-112.896 -47.8571 0 
-90.9337 -50.706 0 
-60.1661 -48.5267 0 
-100.108 -91.8514 0 
-92.0164 -74.162 0 
-104.668 -76.8709 0 
-97.2913 -60.4478 0 
-100.464 -77.3175 0 
-93.7834 -55.3054 0 
-122.088 -59.0471 0 
-97.8303 -65.0385 0 
-131.457 -51.0865 0 
-110.418 -43.9249 0 
-71.0011 -65.1321 0 
-101.709 -73.9383 0 
-113.05 -92.7119 0 
-79.7591 -50.2039 0 
-104.412 -56.5166 0 
-88.3509 -58.2359 0 
-141.173 -43.1114 0 
-81.0747 -58.0807 0 
-133.177 -23.2319 0 
-99.9591 -16.7933 0 
-71.0807 -79.4985 0 
-72.7594 -71.493 0 
-75.4554 -56.6245 0 
-114.45 -64.3399 0 
-72.8741 -69.4222 0 
-75.5243 -53.9513 0 
-67.5892 -80.9588 0 
-107.173 -67.6355 0 
-55.4253 -79.6022 0 
-127.574 -24.4676 0 
-93.1004 -74.9545 0 
-118.255 -76.3986 0 
-108.873 -30.8612 0 
-124.771 -34.4642 0 
-120.89 -55.1981 0 
-77.8689 -39.5399 0 
-109.93 -45.3481 0 
-93.1331 -71.8499 0 
-59.5187 -65.4414 0 
-66.1333 -56.8391 0 
-85.5409 -35.549 0 
-109.872 -49.7333 0 
-95.9448 -39.9626 0 
-71.6279 -66.849 0 
-92.8538 -37.1043 0 
-84.4417 -41.1617 0 
-117.97 -43.9277 0 
-75.2946 -69.3268 0 
-110.331 -65.2869 0 
-65.357 -59.2641 0 
-76.8344 -33.9006 0 
-99.8318 -45.2634 0 
-133.569 -45.733 0 
-107.621 -38.4594 0 
-88.8177 -63.9471 0 
-77.6755 -62.41 0 
-89.7313 -37.9713 0 
-118.888 -76.1308 0 
-116.459 -46.9495 0 
-98.9886 -38.1629 0 
-94.5606 -45.8987 0 
-54.1219 -62.412 0 
-80.9136 -38.5151 0 
-72.7378 -59.6509 0 
-85.4621 -66.2553 0 
-122.64 -7.3543 0 
-98.0628 -43.4441 0 
-114.309 -38.5783 0 
-65.1587 -65.0059 0 
-72.2373 -53.8246 0 
-82.0917 -58.3713 0 
-57.1107 -64.5623 0 
-62.1109 -64.3966 0 
-127.97 -25.8811 0 
-73.9451 -55.6835 0 
-86.6444 -58.3509 0 
-111.186 -40.9134 0 
-119.58 10.0945 0 
-86.5204 -30.6049 0 
-87.3437 -48.6825 0 
-107.092 -25.4604 0 
-96.3331 -48.4169 0 
-88.5433 -58.5989 0 
-130.001 -66.1809 0 
-77.1354 -64.952 0 
-115.678 -69.5048 0 
-64.8793 -48.9931 0 
-86.7563 -48.6654 0 
-75.1131 -60.4551 0 
-93.7733 -73.1304 0 
-103.6 -51.2274 0 
-80.7032 -62.5885 0 
-62.8879 -71.5159 0 
-109.047 11.7877 0 
-69.9582 -67.7167 0 
-67.075 -33.9629 0 
-84.4294 -43.5356 0 
-110.703 -27.4085 0 
-100.875 -55.8265 0 
-81.1315 -22.0194 0 
-119.266 -69.192 0 
-107.451 -42.677 0 
-119.552 -60.4806 0 
-99.6262 -84.166 0 
-76.131 -59.896 0 
-63.6898 -72.2989 0 
-108.298 -52.3348 0 
-99.5545 -18.2966 0 
-91.7058 -36.8541 0 
-131.163 -17.1862 0 
-57.9407 -73.417 0 
-129.816 -54.9922 0 
-105.724 -42.9375 0 
-73.1768 -76.9593 0 
-90.6933 -48.8531 0 
-79.6411 -75.116 0 
-100.015 -27.0147 0 
-156.146 -44.7846 0 
-148.412 -27.077 0 
-98.3042 -33.3316 0 
-135.325 -45.5116 0 
-67.0074 9.93855 0 
-100.489 37.7851 0 
-65.1198 -17.9267 0 
-92.6164 3.63482 0 
-99.7269 16.1814 0 
-90.5317 8.21095 0 
-94.5296 -51.7395 0 
-61.7238 -23.6242 0 
-131.83 -30.7913 0 
-97.8369 -19.9548 0 
-79.7225 -34.634 0 
-63.3685 15.3468 0 
-90.6631 -6.69238 0 
-97.6234 10.5225 0 
-74.6583 -11.5404 0 
-85.8491 8.70757 0 
-93.1487 32.6866 0 
-95.2369 3.7396 0 
-115.964 1.36547 0 
-78.0539 15.7208 0 
-73.3862 15.0829 0 
-108.052 -14.8006 0 
-86.3369 -11.7616 0 
-76.5126 -2.63798 0 
-94.269 -21.0243 0 
-61.3567 -42.6451 0 
-110.723 2.99141 0 
-106.505 -26.9912 0 
-98.2342 -19.7817 0 
-81.6988 -15.0458 0 
-98.0152 5.0767 0 
-58.5567 6.62864 0 
-114.413 -55.0045 0 
-106.067 -31.3134 0 
-96.5393 -15.314 0 
-109.166 -51.3947 0 
-131.218 -9.74 0 
-66.7831 -6.26825 0 
-118.553 6.2299 0 
-101.452 16.8845 0 
-97.674 25.8652 0 
-103.652 25.7266 0 
-126.878 -3.97367 0 
-94.4033 -37.6477 0 
-116.045 5.41027 0 
-103.489 -21.4029 0 
-86.4042 25.1005 0 
-59.122 -4.48369 0 
-94.6874 -55.3434 0 
-103.465 6.59325 0 
-67.1374 -7.23143 0 
-110.19 11.3315 0 
-91.0652 -4.93838 0 
-98.3557 -45.9249 0 
-101.72 -14.8381 0 
-99.1465 21.6706 0 
-83.1046 -18.9944 0 
-69.9033 5.18834 0 
-109.472 9.29271 0 
-114.377 12.7023 0 
-111.216 12.158 0 
-73.5535 -25.8766 0 
-104.135 23.0142 0 
-82.2999 -34.3182 0 
-60.6626 -2.69644 0 
-68.9878 11.6606 0 
-113.887 -51.9076 0 
-134.396 -26.9002 0 
-142.38 -13.4482 0 
-99.6585 24.891 0 
-77.3371 5.10705 0 
-80.2023 3.64489 0 
-64.8106 -0.616354 0 
-87.9549 4.82359 0 
-85.8834 -28.3568 0 
-90.0662 1.81301 0 
-91.2867 -29.6424 0 
-86.7898 -15.0082 0 
-108.283 -19.701 0 
-91.0595 31.3023 0 
-134.413 5.06199 0 
-82.4166 1.79589 0 
-101.836 8.78694 0 
-106.872 21.1288 0 
-94.8815 33.8935 0 
-97.9733 -55.9956 0 
-82.0005 20.8516 0 
-101.242 -22.267 0 
-60.333 -39.4781 0 
-60.5492 -19.153 0 
-147.128 -7.50692 0 
-65.7466 -18.7381 0 
-73.3597 11.1372 0 
-87.5456 -29.1955 0 
-61.6376 -1.29291 0 
-84.8805 -6.5191 0 
-104.955 -0.647041 0 
-79.3289 -13.356 0 
-97.6699 15.5934 0 
-88.6167 28.8304 0 
-60.4311 8.6379 0 
-93.6401 22.8386 0 
-100.214 -28.7845 0 
-100.447 -24.1987 0 
-87.3277 -15.8034 0 
-95.2987 15.8529 0 
-138.897 -18.2309 0 
-102.476 -13.8825 0 
-64.3617 -9.20716 0 
-64.9634 4.64909 0 
-80.4748 27.4419 0 
-122.012 -5.32419 0 
-88.21 18.244 0 
-62.1648 0.0685526 0 
-85.6727 -28.5802 0 
-73.5968 11.9783 0 
-122.856 -0.646559 0 
-96.1982 18.6929 0 
-76.262 19.8928 0 
-61.9438 0.344673 0 
-136.986 -11.6592 0 
-87.6019 -12.6827 0 
-55.7836 -22.6563 0 
-97.317 -16.9845 0 
-129.672 -21.9989 0 
-85.6089 -18.1115 0 
-61.5049 4.02162 0 
-51.3088 13.8046 0 
-93.5523 14.7698 0 
-69.3226 -10.1706 0 
-86.8662 -26.5869 0 
-103.182 -33.7578 0 
-95.5423 4.74447 0 
-61.6418 18.7357 0 
-79.2584 -13.4233 0 
-103.281 -1.24374 0 
-96.0859 8.09882 0 
-86.9605 -27.2523 0 