<VTKFile type="UnstructuredGrid" version="0.1" byte_order="BigEndian">
  <UnstructuredGrid>
        <Piece NumberOfPoints="8000" NumberOfCells="0" Time= "0.085">      <Points>
        <DataArray name="Position" type="Float32"  NumberOfComponents= "3"  format="ascii">

112.094 12.4486 0 
112.145 12.4495 0 
111.738 12.4944 0 
111.85 12.2646 0 
111.807 16.3676 0 
112.209 16.5688 0 
112.069 17.1581 0 
112.164 16.4503 0 
111.959 16.3679 0 
111.409 16.949 0 
112.014 16.4179 0 
111.43 17.006 0 
111.445 16.9594 0 
111.858 16.3406 0 
112.196 16.0788 0 
112.09 16.2082 0 
111.485 17.0057 0 
111.454 15.7087 0 
111.851 19.4891 0 
111.462 19.9411 0 
111.99 19.5743 0 
111.994 18.7945 0 
111.667 18.6744 0 
111.767 19.6791 0 
112.114 19.3247 0 
111.478 19.8635 0 
111.811 19.7671 0 
111.442 19.7258 0 
112.044 18.6229 0 
111.793 19.9038 0 
111.463 19.9102 0 
112.029 19.6945 0 
112.048 19.7907 0 
111.921 19.8584 0 
111.645 18.7106 0 
111.732 19.3358 0 
111.937 20.0704 0 
111.728 19.2592 0 
111.878 19.8145 0 
112.085 18.1569 0 
111.992 19.5953 0 
111.493 19.4325 0 
111.997 18.7861 0 
111.389 22.5951 0 
111.662 20.2173 0 
111.042 22.9436 0 
113.912 11.7263 0 
112.497 11.5908 0 
112.572 11.5942 0 
112.506 11.6436 0 
112.506 11.9894 0 
113.792 11.9541 0 
112.444 11.8165 0 
114.664 12.054 0 
112.628 11.6406 0 
114.589 11.627 0 
113.743 12.0624 0 
113.591 12.1304 0 
112.431 11.8619 0 
112.437 11.8594 0 
112.863 11.5047 0 
112.782 11.6067 0 
114.055 11.8247 0 
114.674 11.5987 0 
114.409 11.758 0 
112.65 11.7458 0 
114.637 12.1444 0 
112.449 11.7005 0 
114.583 11.616 0 
114.387 12.1992 0 
114.22 11.8714 0 
112.805 11.8221 0 
112.783 11.9096 0 
112.82 11.9148 0 
114.084 11.9213 0 
113.778 11.8428 0 
112.764 11.8524 0 
112.553 11.5906 0 
113.82 11.8274 0 
114.316 11.703 0 
113.953 11.725 0 
112.473 11.7458 0 
112.697 11.8424 0 
112.805 11.5923 0 
112.473 11.9399 0 
113.702 12.0115 0 
114.248 11.7808 0 
112.36 11.7967 0 
114.104 11.7143 0 
113.834 12.039 0 
114.342 11.4192 0 
112.655 11.3965 0 
113.8 12.0057 0 
113.828 13.4626 0 
113.751 13.6306 0 
113.185 14.736 0 
113.68 13.4496 0 
113.927 14.6076 0 
113.84 13.1235 0 
114.602 13.9989 0 
114.573 13.0911 0 
112.95 14.7434 0 
114.615 13.0726 0 
114.615 13.3579 0 
114.763 14.707 0 
114.619 12.9332 0 
112.525 13.9788 0 
113.895 12.8525 0 
113.865 13.4818 0 
114.117 14.7218 0 
113.994 14.4998 0 
113.783 13.4418 0 
113.836 13.5351 0 
113.323 13.9203 0 
114.066 14.6756 0 
114.099 14.479 0 
114.035 13.1501 0 
114.501 13.4161 0 
112.271 12.3454 0 
113.905 13.3896 0 
113.85 13.2102 0 
114.705 14.6476 0 
114.389 13.4423 0 
113.356 13.9339 0 
113.854 13.7459 0 
112.666 13.8229 0 
114.375 13.1432 0 
113.456 12.8059 0 
114.096 14.7358 0 
113.624 13.4712 0 
114.526 14.0681 0 
113.177 13.3439 0 
113.836 14.6688 0 
114.635 12.9164 0 
114.164 13.8728 0 
113.796 13.6335 0 
112.512 13.9767 0 
114.524 13.4062 0 
113.758 13.2768 0 
113.45 14.0053 0 
114.316 14.4088 0 
113.036 13.7593 0 
114.241 14.1443 0 
114.644 13.7695 0 
112.588 13.7416 0 
112.601 13.786 0 
114.299 14.5075 0 
113.126 14.3306 0 
114.593 13.8724 0 
113.361 12.7024 0 
112.678 13.5932 0 
113.681 14.6993 0 
112.978 15.7417 0 
113.572 16.8655 0 
114.147 15.2536 0 
113.941 15.8864 0 
113.726 16.5287 0 
112.774 16.6068 0 
113.967 16.786 0 
114.19 15.9124 0 
112.905 16.7355 0 
114.769 16.1415 0 
112.976 15.8654 0 
114.266 16.0732 0 
114.375 16.0631 0 
114.388 16.6355 0 
113.799 15.789 0 
114.278 14.9731 0 
114.175 15.2419 0 
114.024 16.1024 0 
114.469 16.7923 0 
114.458 16.846 0 
113.634 17.2757 0 
114 15.2608 0 
113.138 17.1492 0 
112.768 15.1914 0 
113.075 15.4987 0 
114.234 16.6384 0 
112.797 16.3771 0 
112.979 16.1414 0 
114.087 16.2652 0 
114.544 14.899 0 
113.769 16.9082 0 
114.556 15.7951 0 
112.909 16.6454 0 
114.355 15.8142 0 
112.896 15.7549 0 
113.024 15.9407 0 
114.259 14.9673 0 
114.736 15.7142 0 
113.862 16.4652 0 
114.117 15.5504 0 
114.069 17.026 0 
114.45 16.4694 0 
114.28 15.7141 0 
114.112 14.8896 0 
112.738 16.5125 0 
113.381 16.4634 0 
113.81 15.4155 0 
114.268 16.0616 0 
112.856 16.6852 0 
114.479 15.4229 0 
113.674 15.6863 0 
113.638 17.5117 0 
113.042 16.7645 0 
114.29 15.9573 0 
114.087 15.5081 0 
114.21 16.4236 0 
112.861 16.6831 0 
114.046 16.4983 0 
113.46 17.0465 0 
114.022 15.1029 0 
113.563 16.0552 0 
114.327 15.6927 0 
112.707 15.9799 0 
114.026 14.8047 0 
112.79 16.6556 0 
114.123 15.274 0 
113.917 14.77 0 
114.275 14.9799 0 
114.008 16.1049 0 
114.099 16.4884 0 
114.457 15.6006 0 
113.815 15.5353 0 
114.261 15.9858 0 
112.812 16.5895 0 
114.054 16.3618 0 
113.899 15.7034 0 
114.365 15.9275 0 
113.19 16.0743 0 
114.14 15.9265 0 
112.918 16.5549 0 
114.767 16.3192 0 
113.025 16.4432 0 
112.906 16.2641 0 
113.934 16.779 0 
113.886 15.9455 0 
113.621 16.9642 0 
112.698 15.1699 0 
113.03 16.5282 0 
113.089 16.0022 0 
113.512 16.5666 0 
112.906 16.7062 0 
114.175 14.758 0 
112.496 16.5437 0 
112.69 15.7462 0 
113.865 15.4094 0 
114.184 16.6201 0 
114.177 16.0061 0 
114.628 14.7668 0 
114.093 14.8735 0 
112.811 16.7485 0 
114.344 16.0954 0 
114.726 16.2998 0 
114.019 15.2219 0 
114.148 16.2314 0 
114.109 15.2893 0 
112.765 16.5305 0 
114.398 16.1352 0 
114.447 16.26 0 
112.954 15.7646 0 
114.527 16.8163 0 
114.344 15.824 0 
112.882 15.7636 0 
113.702 15.8522 0 
113.481 17.1702 0 
113.991 16.0138 0 
112.743 15.8473 0 
114.053 16.2421 0 
113.016 15.9994 0 
114.649 15.6197 0 
112.826 15.6072 0 
114.534 15.4829 0 
112.912 16.7045 0 
113.501 16.7296 0 
112.792 15.9296 0 
114.7 16.309 0 
113.185 16.6142 0 
114.082 15.1089 0 
114.507 15.3457 0 
114.02 15.2079 0 
114.137 15.2934 0 
113.949 16.5369 0 
112.845 15.612 0 
114.239 15.124 0 
114.06 16.247 0 
113.962 15.9541 0 
113.967 16.6881 0 
113.779 16.3745 0 
114.138 15.2127 0 
113.963 16.4082 0 
112.906 16.3533 0 
114.353 15.981 0 
114.298 16.1078 0 
114.15 16.0495 0 
114.08 15.0829 0 
114.2 16.0769 0 
113.423 17.5292 0 
114.618 16.083 0 
114.321 16.0221 0 
114.774 16.6449 0 
113.087 16.0191 0 
113.048 17.4405 0 
113.489 17.1855 0 
114.236 14.9732 0 
114.083 16.7943 0 
112.889 15.1261 0 
114.153 15.917 0 
114.502 16.5934 0 
113.958 16.4801 0 
113.857 16.6002 0 
114.068 16.8609 0 
114.159 15.08 0 
114.153 14.7982 0 
114.506 16.056 0 
113.32 16.5312 0 
114.063 16.8754 0 
113.886 16.962 0 
112.786 15.8508 0 
114.435 15.45 0 
113.889 14.87 0 
113.022 15.7862 0 
112.758 15.6733 0 
114.741 16.4204 0 
114.122 16.2929 0 
113.893 16.5305 0 
112.587 16.5545 0 
114.557 16.063 0 
113.427 16.2344 0 
113.853 16.7496 0 
112.741 16.5786 0 
114.017 16.6176 0 
114.642 14.825 0 
113.923 16.4233 0 
114.654 16.4051 0 
113.722 15.7903 0 
113.78 17.3189 0 
113.824 16.6739 0 
114.282 16.063 0 
114.27 14.971 0 
114.352 16.2908 0 
114.701 14.9169 0 
114.278 15.9752 0 
113.413 17.0101 0 
112.986 16.6394 0 
113.409 15.8431 0 
112.95 16.5868 0 
114.572 15.9816 0 
113.973 15.9377 0 
113.203 16.0366 0 
113.487 17.2258 0 
114.886 16.1605 0 
114.142 15.7256 0 
114.022 16.3267 0 
113.874 16.3205 0 
114.462 15.9639 0 
112.856 15.6182 0 
112.881 16.4907 0 
114.001 15.7536 0 
114.398 16.7172 0 
112.706 16.5607 0 
112.806 15.2226 0 
114.346 15.8943 0 
114.12 14.9465 0 
112.939 16.7178 0 
113.923 14.8192 0 
113.937 16.1095 0 
113.865 15.302 0 
114.659 16.8652 0 
112.978 16.6127 0 
114.408 16.21 0 
114.295 15.936 0 
113.137 16.0924 0 
113.084 16.3572 0 
113.778 16.3966 0 
114.12 16.323 0 
114.171 15.6333 0 
112.3 16.5249 0 
113.47 16.6689 0 
113.918 14.8137 0 
113.023 15.7399 0 
114.464 16.0518 0 
114.672 14.857 0 
112.998 16.7718 0 
112.931 16.616 0 
114.197 15.6074 0 
112.929 15.3985 0 
113.637 17.004 0 
113.014 16.6583 0 
113.038 15.7175 0 
112.903 16.2024 0 
113.503 16.0503 0 
113.727 15.9346 0 
114.759 16.2368 0 
113.969 16.3019 0 
113.329 15.4957 0 
114.212 16.6553 0 
112.709 15.6596 0 
113.644 17.1058 0 
113.893 16.4191 0 
114.533 15.8506 0 
114.146 16.3191 0 
113.43 16.2126 0 
113.084 16.7727 0 
113.931 16.4402 0 
114.126 16.7004 0 
114.478 15.4751 0 
114.431 16.2408 0 
113.403 16.5162 0 
113.896 15.872 0 
114.494 16.8275 0 
112.913 16.1573 0 
112.722 15.7946 0 
114.388 16.6295 0 
113.322 16.408 0 
113.745 17.0851 0 
113.595 16.5862 0 
113.926 16.4353 0 
114.331 16.1685 0 
114.171 16.1496 0 
113.91 15.3143 0 
114.705 16.7188 0 
113.408 16.354 0 
114.734 14.7537 0 
114.063 16.5906 0 
114.837 16.2538 0 
114.13 16.2822 0 
113.666 17.0329 0 
114.163 15.6019 0 
113.359 16.6852 0 
114.222 15.7911 0 
114.303 16.261 0 
113.949 16.4974 0 
114.278 15.6322 0 
113.943 14.9964 0 
113.628 16.849 0 
112.461 17.2997 0 
113.48 19.3171 0 
113.578 19.0618 0 
113.853 19.1427 0 
113.096 18.0969 0 
112.947 19.8071 0 
113.241 18.9031 0 
113.446 19.4307 0 
112.956 19.7216 0 
113.105 19.4863 0 
113.929 19.1942 0 
113.734 18.8926 0 
113.831 19.218 0 
113.614 19.3995 0 
113.772 19.2397 0 
112.938 19.9229 0 
113.364 17.5568 0 
112.862 18.5323 0 
112.394 19.7867 0 
113.378 19.0271 0 
113.533 19.1198 0 
113.038 19.6734 0 
112.968 19.7244 0 
112.879 18.6562 0 
113.997 17.7718 0 
113.4 18.8793 0 
112.159 19.3764 0 
114.134 18.6436 0 
114.144 18.7181 0 
114.598 18.9034 0 
114.121 18.9246 0 
113.374 18.9187 0 
114.127 18.6351 0 
113.567 18.8799 0 
113.968 18.9632 0 
114.093 19.1522 0 
113.386 18.681 0 
114.296 18.0109 0 
114.125 18.4804 0 
113.694 19.4642 0 
113.193 19.8979 0 
113.798 18.84 0 
114.031 19.3398 0 
113.35 19.8595 0 
113.494 19.0176 0 
114.655 19.2995 0 
113.226 17.5918 0 
112.128 19.7491 0 
112.643 18.3123 0 
113.308 19.896 0 
113.285 19.8757 0 
112.204 19.3309 0 
113.62 17.5084 0 
113.359 18.5007 0 
113.403 18.8901 0 
113.648 18.0568 0 
113.883 18.9916 0 
113.518 19.1827 0 
113.719 19.8776 0 
112.394 19.796 0 
113.825 19.2934 0 
113.007 19.4838 0 
114.365 19.2583 0 
113.808 17.7492 0 
113.484 19.3156 0 
114.195 19.9712 0 
114.243 19.1683 0 
113.422 18.6985 0 
112.716 18.2791 0 
113.255 19.8793 0 
113.638 19.4971 0 
112.771 18.2558 0 
114.191 18.7161 0 
114.607 19.1512 0 
112.69 19.2887 0 
114.703 17.5688 0 
114.516 19.0442 0 
114.112 21.9054 0 
113.303 20.4255 0 
114.345 21.8406 0 
113.995 21.8185 0 
114.161 21.9347 0 
[...]
      <PointData Vectors="vector">
        <DataArray type="Float32" Name="Velocity" NumberOfComponents="3" format="ascii">

-54.9683 -79.1907 0 
-64.9098 -74.6048 0 
-65.3154 -41.8528 0 
-65.1821 -76.1629 0 
-65.2044 -75.3953 0 
-45.4781 -79.6793 0 
-53.929 -39.3971 0 
-56.9253 -78.8477 0 
-74.4925 -69.1497 0 
-65.9645 -41.4819 0 
-44.7016 -77.488 0 
-84.6612 -32.5996 0 
-74.7648 -51.7773 0 
-81.2299 -31.8995 0 
-43.6834 7.74253 0 
-83.4905 0.950149 0 
-42.5053 -5.1252 0 
-54.2551 -5.52931 0 
-68.135 -24.7317 0 
-84.3917 23.899 0 
-57.0695 -0.804001 0 
-83.843 33.6667 0 
-45.6592 -1.83602 0 
-83.8233 27.8401 0 
-62.4819 -12.4979 0 
-46.1175 -24.4872 0 
-54.7212 -11.683 0 
-84.5102 -3.80649 0 
-83.5517 -20.7642 0 
-68.4152 -25.2349 0 
-82.2731 75.3444 0 
-83.8038 29.5037 0 
-82.0962 82.4742 0 
-77.2291 52.0485 0 
-82.2232 43.3413 0 
-77.4401 67.7254 0 
-77.4384 77.4276 0 
-84.0168 28.9983 0 
-77.5005 71.2366 0 
-84.1112 29.5186 0 
-71.5343 82.1052 0 
-77.1335 77.477 0 
-73.3119 44.7964 0 
-77.1318 77.497 0 
-84.0052 29.3524 0 
-81.294 76.1058 0 
-81.9084 82.4975 0 
-81.6251 82.4958 0 
-78.1016 77.9493 0 
-82.0352 38.8734 0 
-77.1402 77.2571 0 
-82.1401 60.5664 0 
-82.2313 63.5807 0 
-77.811 77.8217 0 
-71.8604 29.1255 0 
-71.0434 77.4269 0 
-82.0693 82.4733 0 
-84.0066 20.54 0 
-77.2284 51.7837 0 
-52.9443 31.8819 0 
-69.294 69.7015 0 
-79.1176 -64.9391 0 
-35.722 -79.798 0 
-45.7539 -79.7241 0 
-75.3829 -68.3267 0 
-72.2633 -66.2805 0 
-36.2091 -56.0149 0 
-49.3798 -79.6034 0 
-44.7819 -66.327 0 
-52.3494 -65.9159 0 
-63.8119 -65.4843 0 
-69.6536 -59.7622 0 
-54.5043 -73.3862 0 
-40.6787 -79.4801 0 
-49.0473 -78.8408 0 
-79.1754 -74.3778 0 
-46.2514 -71.6071 0 
-60.1878 -75.8915 0 
-58.5249 -78.5721 0 
-36.2936 -57.719 0 
-53.023 -63.4538 0 
-42.2572 -51.8136 0 
-71.8099 -75.5875 0 
-58.5722 -71.896 0 
-64.9484 -69.6258 0 
-65.9028 -69.0644 0 
-75.3703 -74.9686 0 
-77.5353 -64.844 0 
-61.2369 -69.2839 0 
-56.1997 -77.9367 0 
-78.9636 -62.5815 0 
-60.914 -68.8959 0 
-78.3577 -74.5919 0 
-58.8959 -76.1169 0 
-54.4953 -77.3184 0 
-69.5489 -59.0672 0 
-72.686 -74.6032 0 
-69.4019 -74.721 0 
-62.4997 -67.3192 0 
-57.0484 -84.2593 0 
-42.1587 -84.7479 0 
-39.5747 -58.7395 0 
-74.9398 -20.9092 0 
-76.9743 -30.7085 0 
-53.2831 -26.8475 0 
-70.2115 -20.726 0 
-67.7726 -9.99777 0 
-55.4898 -44.4949 0 
-77.4347 -56.3049 0 
-51.6098 -62.8775 0 
-79.1385 -54.7839 0 
-53.5388 -62.0004 0 
-79.4384 -31.9511 0 
-58.1498 -77.6647 0 
-49.8006 -53.6868 0 
-74.6821 -20.6829 0 
-83.5875 -49.1841 0 
-33.7666 -47.9119 0 
-66.6407 -50.1874 0 
-60.3262 -28.5789 0 
-61.1987 -15.7294 0 
-45.4957 -53.2637 0 
-83.9522 -53.504 0 
-57.655 -15.872 0 
-76.1431 -50.8044 0 
-56.639 -44.842 0 
-70.9105 -37.1277 0 
-64.7556 -12.2885 0 
-34.2717 -20.2021 0 
-73.3555 -24.5083 0 
-62.5922 -52.7236 0 
-79.759 -56.0092 0 
-74.7917 -56.4229 0 
-80.4913 -13.5922 0 
-76.064 -21.2496 0 
-29.7882 -26.2046 0 
-60.0453 -53.1966 0 
-83.3701 -64.1087 0 
-64.2874 -32.8009 0 
-65.6021 -53.5232 0 
-60.3976 -54.4631 0 
-61.3942 -50.9491 0 
-64.7619 -30.4774 0 
-79.9057 -28.1367 0 
-66.7489 -78.4292 0 
-70.9988 -23.7041 0 
-79.502 -27.8893 0 
-56.0566 -66.7264 0 
-72.285 -80.2696 0 
-31.1974 -26.6512 0 
-74.859 -20.4245 0 
-64.8171 -13.5997 0 
-59.4086 -75.3254 0 
-55.202 -45.34 0 
-64.4193 -26.3417 0 
-41.9113 -32.5427 0 
-61.7638 -51.3946 0 
-69.7537 -22.7748 0 
-64.9922 -52.0365 0 
-74.5167 -49.4821 0 
-64.2373 -82.621 0 
-47.5541 -64.8023 0 
-31.0944 -45.9752 0 
-84.4367 -54.3442 0 
-74.9296 -10.0878 0 
-74.7528 -9.99388 0 
-48.0961 -53.8539 0 
-69.3526 -39.2388 0 
-80.7201 -72.0282 0 
-75.762 -27.9806 0 
-54.8663 -43.9476 0 
-50.0128 -55.7265 0 
-64.7643 -12.4658 0 
-65.7375 -77.9584 0 
-79.4514 -23.8952 0 
-74.7597 -9.99399 0 
-65.2722 -50.8027 0 
-70.2753 -51.814 0 
-58.6988 -72.183 0 
-74.5147 -47.9021 0 
-56.1153 -55.3243 0 
-74.7573 -9.99314 0 
-76.8995 -19.5158 0 
-79.7729 -57.894 0 
-75.3597 -49.6246 0 
-24.1651 -36.1714 0 
-71.8709 -64.1956 0 
-59.2087 -81.4551 0 
-50.4578 -53.4531 0 
-58.2313 -30.2689 0 
-69.5379 -13.4631 0 
-80.8433 -53.4444 0 
-17.5202 -38.2041 0 
-46.3223 -53.6147 0 
-63.5688 -81.1566 0 
-73.7547 -3.80416 0 
-63.5833 -41.9373 0 
-64.4781 -41.7885 0 
-51.6142 -62.6213 0 
-67.0058 -29.6677 0 
-63.4897 -52.4606 0 
-62.175 -44.6562 0 
-82.5204 -25.3814 0 
-58.9222 -4.42892 0 
-56.1472 -43.4516 0 
-63.1921 -12.565 0 
-65.7436 1.8318 0 
-38.9899 23.8203 0 
-40.4552 -0.000307943 0 
-69.4566 16.072 0 
-54.1054 -20.1404 0 
-14.8803 14.1493 0 
-43.5646 17.5195 0 
-41.6898 15.8448 0 
-36.5284 -21.5248 0 
-83.0507 -6.46134 0 
-70.5249 -14.7401 0 
-61.6759 10.1201 0 
-84.1404 -9.53508 0 
-58.8069 -42.7814 0 
-80.0799 -0.638134 0 
-52.3438 12.0671 0 
-55.9629 -34.5341 0 
-52.6385 4.79928 0 
-81.85 -38.4428 0 
-37.6151 2.81107 0 
-63.0669 -50.0991 0 
-59.8733 -20.6461 0 
-63.0407 -39.3698 0 
-58.8843 4.82069 0 
-44.5448 -11.0824 0 
-21.2402 -4.595 0 
-73.3082 12.0626 0 
-54.8698 0.0913612 0 
-55.7879 14.5259 0 
-64.8048 -11.4336 0 
-56.1935 17.5173 0 
-54.1957 -5.07718 0 
-15.8269 -5.18304 0 
-53.2119 -14.6252 0 
-48.7354 17.8893 0 
-75.607 0.525725 0 
-84.2067 -34.6275 0 
-64.9971 -33.153 0 
-54.0631 -11.8064 0 
-68.576 7.1954 0 
-75.9929 -22.7843 0 
-53.5107 12.4929 0 
-70.2778 11.8435 0 
-74.0163 10.1027 0 
-84.0072 -16.7591 0 
-58.4479 -28.3946 0 
-28.1527 0.188998 0 
-77.6942 -10.187 0 
-84.45 -31.8915 0 
-63.9215 16.6151 0 
-74.9467 -14.6828 0 
-17.3503 -4.19707 0 
-74.985 -25.6059 0 
-74.8245 -55.8611 0 
-23.5265 -9.25369 0 
-46.4613 -6.63087 0 
-74.6532 0.861044 0 
-65.4963 -30.7434 0 
-58.574 11.5745 0 
-31.488 -3.20656 0 
-61.7551 -54.2648 0 
-56.191 1.33289 0 
-83.487 -44.9105 0 
-78.4417 -56.1349 0 
-63.0865 -21.8346 0 
-63.2093 -34.1088 0 
-57.4147 -9.87654 0 
-83.6411 3.98908 0 
-58.912 -41.4091 0 
-79.7551 9.79044 0 
-70.9225 -8.01442 0 
-78.0983 -23.9059 0 
-71.6188 -59.0791 0 
-57.2737 -0.526736 0 
-40.6166 5.17624 0 
-70.4157 12.0559 0 
-60.737 -13.3711 0 
-42.1716 5.26869 0 
-77.7675 -15.9444 0 
-71.7248 -17.1828 0 
-76.2471 6.17667 0 
-24.5039 -9.89328 0 
-37.6738 15.5651 0 
-28.3611 8.37346 0 
-75.2131 -7.5608 0 
-29.054 -5.86253 0 
-62.2594 -2.93552 0 
-57.0054 -11.6265 0 
-60.2225 3.71316 0 
-68.2773 -51.3663 0 
-45.498 -2.4515 0 
-71.4902 -14.6856 0 
-74.3695 -23.0976 0 
-60.4115 -18.7866 0 
-15.5329 2.62948 0 
-82.7386 -37.9708 0 
-84.32 -35.216 0 
-66.0359 -3.26859 0 
-64.5932 -7.09702 0 
-54.8676 -37.4268 0 
-73.079 17.9652 0 
-74.6087 4.45383 0 
-34.8972 10.2906 0 
-53.579 -63.4306 0 
-36.7977 6.37279 0 
-58.6295 -44.2155 0 
-83.1892 -3.59195 0 
-54.5843 -44.0894 0 
-29.9531 -13.1409 0 
-43.6588 21.5239 0 
-77.6229 -2.15814 0 
-76.6011 1.25984 0 
-31.367 -20.027 0 
-50.3081 9.20904 0 
-54.9452 17.6744 0 
-80.0035 -13.1267 0 
-83.568 -28.3048 0 
-84.2129 -3.25501 0 
-50.0479 6.45514 0 
-62.6781 -10.6829 0 
-82.6502 -32.812 0 
-78.8663 10.6869 0 
-78.6 -0.624606 0 
-76.5458 -24.3769 0 
-67.3831 -23.051 0 
-79.5315 -39.5516 0 
-54.9895 -10.2765 0 
-80.4905 7.74286 0 
-64.7891 -20.5503 0 
-15.4752 3.00702 0 
-59.1687 -11.6084 0 
-82.638 -30.8095 0 
-37.9225 1.01473 0 
-67.7587 -13.0006 0 
-82.7247 -43.2513 0 
-75.0146 -29.9457 0 
-58.1687 -44.3217 0 
-57.0956 -39.5964 0 
-79.1039 14.3382 0 
-80.423 -30.864 0 
-57.8872 -47.1366 0 
-81.7986 -1.8377 0 
-78.1268 -2.75541 0 
-78.2718 2.33017 0 
-55.5893 13.269 0 
-69.337 6.72835 0 
-76.6028 8.73249 0 
-55.9875 -43.1895 0 
-70.7594 14.652 0 
-31.002 -6.0003 0 
-79.1232 -4.36986 0 
-74.4024 -12.5926 0 
-80.1291 -2.66256 0 
-74.0012 9.02047 0 
-84.1516 -36.3002 0 
-74.6648 3.41107 0 
-61.2409 8.33533 0 
-71.0154 -18.4255 0 
-35.3097 13.7923 0 
-77.97 -20.5367 0 
-33.9039 5.9619 0 
-50.1779 6.84393 0 
-71.9654 9.76927 0 
-45.8338 -48.2794 0 
-54.4089 -17.4227 0 
-57.5615 15.254 0 
-66.903 17.2738 0 
-67.8821 15.3013 0 
-55.2013 -37.2467 0 
-74.1739 -44.5205 0 
-69.5235 -10.1008 0 
-70.3184 -21.9927 0 
-27.6003 12.1503 0 
-55.3838 -36.7436 0 
-46.0329 4.44984 0 
-82.7743 -33.3813 0 
-74.9265 -27.0874 0 
-34.3633 -25.1618 0 
-79.1924 -39.6576 0 
-49.2148 -13.9057 0 
-82.4058 -3.75005 0 
-62.3605 -4.13703 0 
-36.6 -6.41736 0 
-77.1163 -8.30562 0 
-66.7593 -4.91044 0 
-81.2195 -25.6402 0 
-69.3439 16.9824 0 
-31.4151 -7.91122 0 
-68.5984 0.0648245 0 
-68.5679 13.0882 0 
-52.8497 10.1867 0 
-70.8917 -53.1456 0 
-57.7822 -0.0521032 0 
-69.4635 14.1002 0 
-59.154 -20.332 0 
-73.6223 -14.8871 0 
-79.8594 9.88191 0 
-55.0622 -56.2323 0 
-58.8222 9.88757 0 
-64.3167 -12.6434 0 
-79.1574 -32.808 0 
-23.808 -2.66166 0 
-41.1604 -7.73223 0 
-83.3594 3.27903 0 
-67.0545 -19.9618 0 
-50.6571 8.03701 0 
-23.124 10.5656 0 
-74.5242 23.4067 0 
-61.1494 -46.9911 0 
-69.4146 14.0083 0 
-63.8398 0.127977 0 
-64.6645 1.43628 0 
-44.6676 2.60904 0 
-80.8612 -30.4995 0 
-43.366 -1.42038 0 
-84.0742 -4.94997 0 
-57.6239 -39.621 0 
-30.3201 -3.72262 0 
-56.1299 -49.893 0 
-68.2377 -3.60155 0 
-15.0549 12.4173 0 
-79.0522 5.33435 0 
-61.8934 -40.3765 0 
-50.0331 22.9821 0 
-29.5354 17.3882 0 
-51.4024 -59.8982 0 
-73.1789 -14.1647 0 
-76.5938 -17.3728 0 
-18.7689 -0.765808 0 
-76.8356 8.84996 0 
-71.7648 6.53496 0 
-64.0544 -20.557 0 
-55.0408 -2.40238 0 
-78.0656 -9.71818 0 
-30.4054 -22.8447 0 
-70.0346 -12.5745 0 
-61.7538 -2.00665 0 
-62.1842 -5.80543 0 
-68.55 -12.0438 0 
-64.3661 -24.4364 0 
-39.3254 -42.2563 0 
-60.3035 2.22598 0 
-27.0373 -13.3503 0 
-32.8796 -24.8078 0 
-34.8004 -6.66836 0 
-61.8017 -20.5241 0 
-74.3817 -34.9736 0 
-33.4165 8.41631 0 
-79.3586 12.6005 0 
-81.4382 -36.7979 0 
-63.1271 16.6673 0 
-82.1025 -40.6823 0 
-78.6579 -40.2686 0 
-68.4852 9.37165 0 
-65.4771 -11.5076 0 
-56.5661 -59.4693 0 
-81.0698 -26.1751 0 
-63.8542 -7.14427 0 
-71.2673 15.1204 0 
-73.2181 -3.25685 0 
-62.0204 -10.0963 0 
-74.5974 -20.3234 0 
-66.1548 3.74842 0 
-60.7059 -13.5476 0 
-74.1204 -2.34202 0 
-52.1838 -31.7834 0 
-54.428 9.35441 0 
-24.5927 -4.9694 0 
-82.7703 -33.0293 0 
-56.2508 -41.6925 0 
-79.6139 -12.2663 0 
-73.4781 -38.3867 0 
-71.8948 -3.28566 0 
-74.3403 -1.34208 0 
-71.5305 15.1762 0 
-80.0842 1.23621 0 
-80.5992 -12.4221 0 
-76.1908 -39.2163 0 
-48.0991 3.79768 0 
-83.7942 -19.0317 0 
-53.6235 4.32666 0 
-23.9418 10.3193 0 
-70.7416 4.51447 0 
-58.5593 5.64174 0 
-77.9043 -15.2379 0 
-79.0447 13.2488 0 
-78.0258 -7.38738 0 
-56.8143 -52.3839 0 
-55.4219 -53.7475 0 
-78.8972 10.1576 0 
-83.9657 -16.0846 0 
-66.8444 2.40915 0 
-14.328 22.1392 0 
-24.9556 -6.70666 0 
-36.7715 6.02806 0 
-32.0252 31.8842 0 
-31.6881 77.473 0 
-19.0529 46.8272 0 
-29.4826 -9.50026 0 
-31.8186 77.4866 0 
-26.9163 75.5083 0 
-64.0772 34.4494 0 
-75.3808 3.06827 0 
-36.815 17.8033 0 
-16.4039 72.2296 0 
-38.8189 17.5281 0 
-31.4011 77.1481 0 
-55.7269 6.51964 0 
-32.1334 40.0805 0 
-70.1065 21.5046 0 
-19.5502 -3.78398 0 
-31.7451 76.2902 0 
-31.7929 77.4565 0 
-32.3012 41.1373 0 
-66.6432 -17.1895 0 
-20.079 43.4363 0 
-67.0325 16.1953 0 
-62.9966 12.0368 0 
-54.8952 23.8569 0 
-66.6229 9.47577 0 
-70.0678 13.8388 0 
-67.2981 17.2213 0 
-23.9096 -7.10952 0 
-67.9812 17.3919 0 
-61.1529 29.2521 0 
-29.917 38.288 0 
-77.0288 0.853988 0 
-66.027 6.82841 0 
-67.0617 8.87923 0 
-16.6914 72.4373 0 
-74.9801 11.7493 0 
-66.1559 8.74825 0 
-16.7089 73.6584 0 
-79.5029 7.28858 0 
-53.4446 -14.4126 0 
-36.7886 10.0199 0 
-55.6289 36.8334 0 
-17.1713 72.829 0 
-16.9059 75.7401 0 
-66.4739 -47.5894 0 
-29.9432 41.1679 0 
-61.9672 7.99627 0 
-30.6064 13.5792 0 
-34.6443 -4.60589 0 
-58.7943 33.4996 0 
-57.8461 1.0224 0 
-37.1766 19.7924 0 
-27.0369 78.5942 0 
-59.2709 -0.181499 0 
-71.9509 -23.2525 0 
-14.2204 22.1591 0 
-2.75266 14.4638 0 
-63.3545 32.9682 0 
-30.6174 43.374 0 
-55.0211 40.0883 0 
-17.0119 76.0481 0 
-60.0424 6.81628 0 
-41.0931 33.5601 0 
-66.5432 12.6377 0 
-53.8214 37.1784 0 
-46.2347 6.14115 0 
-56.9742 71.0404 0 
-56.825 -3.41758 0 
-53.1003 33.3685 0 
-30.3789 -18.2193 0 
-71.6278 65.6962 0 
-68.9253 1.25708 0 
-57.726 61.5495 0 
-49.1243 52.6485 0 
-71.7321 59.9548 0 
-67.1371 62.4627 0 
-69.6601 59.7929 0 
-65.7918 58.3987 0 
-81.099 54.6482 0 
-66.6496 52.941 0 
-65.7597 66.8925 0 
-65.9398 57.6741 0 
-81.8753 52.4272 0 
-54.4033 53.1474 0 
-69.0966 59.4718 0 
-77.0408 64.5487 0 
-48.7574 60.6028 0 
-81.8399 55.8028 0 
-82.3027 57.465 0 
-67.0947 62.4595 0 
-81.8431 55.8441 0 
-65.1062 67.33 0 
-81.9335 50.3621 0 
-82.2747 52.4155 0 
-73.374 56.5381 0 
-72.1098 65.5085 0 
-51.6751 67.0222 0 
-65.9619 66.1472 0 
-66.1076 65.9451 0 
-56.8291 67.2994 0 
-67.5355 67.091 0 
-55.5068 67.305 0 
-72.0449 66.8443 0 
-62.8526 55.7236 0 
-67.1239 65.3186 0 
-67.2136 67.4319 0 
-51.8213 57.737 0 
-81.0026 65.24 0 
-81.7754 50.1978 0 
-65.9734 57.612 0 
-52.6447 62.4327 0 
-66.8089 62.1385 0 
-31.9507 16.5584 0 
-49.2152 53.9728 0 
-66.1459 61.5422 0 
-82.2099 57.4189 0 
-81.759 54.4013 0 
-74.5088 1.24233 0 
-69.0377 60.4384 0 
-81.999 52.4039 0 
-66.7645 52.8825 0 
-66.4299 56.8264 0 
-81.6373 33.9327 0 
-66.0428 57.6708 0 
-53.2536 15.4858 0 
-31.5495 76.8927 0 
-35.0719 70.6672 0 
-79.532 79.8297 0 
-62.2553 79.6883 0 
-68.9866 79.3884 0 
-64.694 69.5609 0 
-51.4617 -74.8028 0 
-64.9179 -64.8038 0 
-1.07593 -81.5581 0 
-48.615 -74.7498 0 
-2.66837 -80.6011 0 
-39.4038 -65.5951 0 
-42.6934 -64.1326 0 
-55.3713 -84.0244 0 
-63.8569 -84.1392 0 
4.68493 -72.2648 0 
-2.51088 -82.0218 0 
0.719356 -84.2369 0 
-46.0562 -64.7517 0 
-23.8503 -73.5746 0 
-24.9946 -63.3941 0 
-56.7612 -84.116 0 
-60.4452 -66.5836 0 
-53.5965 -68.5475 0 
-42.5527 -64.7325 0 
-65.108 -64.582 0 
-2.33353 -84.3793 0 
-60.3898 -84.4178 0 
-69.7173 -69.6214 0 
7.28598 -84.2067 0 
-20.7398 -84.4527 0 
-2.67715 -80.949 0 
-31.0705 -74.7705 0 
-39.7219 -64.8254 0 
-66.9077 -84.1052 0 
-29.3345 -55.7584 0 
-37.4115 -61.3799 0 
-46.169 -14.7938 0 
-65.2081 -40.5605 0 
-20.5085 -66.5967 0 
-13.1889 -27.4176 0 
-64.9822 -59.8677 0 
-59.2358 -35.8102 0 
-60.5686 -46.6086 0 
-45.7784 -32.596 0 
-59.3481 -39.9714 0 
-58.526 -80.67 0 
-52.9228 -37.3936 0 
-60.0441 -46.8262 0 
-60.2015 -46.1065 0 
-73.1611 -46.1661 0 
-48.4008 -65.1751 0 
-67.0804 -58.397 0 
-60.6461 -56.0132 0 
-59.82 -59.8942 0 
-48.6697 -50.9553 0 
-60.2156 -35.8337 0 
-41.8092 -15.7016 0 
-64.883 -10.2667 0 
-51.8378 -61.8132 0 
-54.4774 -62.3183 0 
-23.7036 -83.5588 0 
-25.0117 -80.0831 0 
-63.9253 -35.8105 0 
-60.2533 -59.717 0 
-22.3081 -79.1884 0 
-64.7701 -55.5542 0 
-29.2467 -69.1061 0 
-51.5591 -70.211 0 
-56.7209 -27.8487 0 
-12.4631 -64.4151 0 
-58.2274 -11.4427 0 
-32.1537 -42.3195 0 
-65.0156 -59.8641 0 
-36.548 -37.0654 0 
-54.7364 -45.0225 0 
-47.3623 -74.6131 0 
-47.3887 -84.2718 0 
-16.8507 -79.2037 0 
-16.0956 -46.586 0 
-36.0402 -49.2558 0 
-54.0331 -55.5908 0 
-14.8239 -84.4624 0 
-30.9906 -84.1509 0 
-25.7276 -61.0488 0 
-37.1128 -66.3568 0 
-55.2085 -77.8585 0 
-71.5252 -68.183 0 
-59.0185 -72.3179 0 
-58.353 -38.2095 0 
-27.9957 -55.7096 0 
-27.8944 -84.547 0 
-53.6791 -74.3808 0 
-54.6427 -47.3624 0 
-23.0463 -15.2053 0 
-41.7347 -10.2877 0 
-27.3646 -58.5151 0 
-61.8986 -35.2672 0 
-64.9018 -59.8726 0 
-51.3792 -42.4858 0 
-55.5576 -69.722 0 
-49.9963 -58.5695 0 
-42.5234 -60.1185 0 
-54.9533 -39.1548 0 
-39.5009 -63.0538 0 
-55.3941 -40.2419 0 
-61.5976 -40.1476 0 
-37.3213 -72.6014 0 
-46.7651 -65.6379 0 
-49.7458 -43.3328 0 
-15.4315 -9.54645 0 
-42.3815 -69.5116 0 
-74.9728 -56.0448 0 
-52.4665 -12.4054 0 
-58.472 -9.92024 0 
-60.0728 -71.0068 0 
-45.682 -29.7128 0 
-65.2703 -12.6731 0 
-74.1104 -34.5987 0 
-63.5239 -34.6798 0 
-26.1682 -44.0106 0 
-25.8421 -64.1114 0 
-39.4288 -36.7321 0 
-60.0818 -36.4554 0 
-65.8904 -41.073 0 
-57.6579 -39.608 0 
-64.9159 -68.6428 0 
-65.3319 -67.9089 0 
-55.3148 -10.5924 0 
-39.1617 -65.8285 0 
-53.0637 -63.2469 0 
-51.7778 -64.7077 0 
-55.2295 -22.8399 0 
-54.9234 -32.958 0 
-42.4437 -36.9367 0 
-74.0107 -31.1562 0 
-56.9937 -80.3829 0 
-18.1337 -32.1331 0 
-59.5326 -38.4907 0 
-54.2995 -55.6157 0 
-50.3838 -52.9376 0 
-53.9724 -76.5748 0 
-56.2852 -58.3655 0 
-58.8389 -48.5847 0 
-75.1325 -46.8334 0 
-57.265 -71.9348 0 
-62.669 -60.1345 0 
-26.8174 -76.3356 0 
-27.8363 -56.1654 0 
-55.7712 -10.4674 0 
-54.9933 -59.849 0 
-72.1537 -32.8246 0 
-56.6834 -34.4565 0 
-51.6141 -50.5408 0 
-54.9979 -29.9681 0 
-54.0081 -37.054 0 
-64.7979 -55.1299 0 
-33.0518 -9.94206 0 
-47.4885 -43.2649 0 
-47.6501 -84.2259 0 
-64.9393 -22.191 0 
-33.2068 -84.0854 0 
-76.6559 -51.3995 0 
-64.84 -58.815 0 
-17.2014 -62.9939 0 
-50.3031 -52.3813 0 
-43.8053 -39.3027 0 
-3.95175 -43.7165 0 
-45.7474 -61.6722 0 
-50.75 -58.6561 0 
-74.6702 -30.5036 0 
-65.1432 -18.3197 0 
-65.0042 -36.6405 0 
-21.5435 -79.1119 0 
-58.3932 -19.873 0 
-64.2534 -54.8375 0 
-54.6051 -59.3583 0 
-48.6285 -12.2551 0 
-38.9928 -37.8569 0 
-62.8828 -43.941 0 
-61.6313 -70.3131 0 
-64.8114 -36.2813 0 
-63.2273 -37.7497 0 
-40.2088 -40.9481 0 
-64.1967 -59.3127 0 
-25.7863 -65.7576 0 
-63.8826 -79.5122 0 
-77.8949 -68.2926 0 
-57.5859 -43.8092 0 
-57.2271 -49.7476 0 
-64.8053 -37.8903 0 
-50.8748 -50.6362 0 
-56.0831 -26.9003 0 
-55.2689 -25.4247 0 
-48.8654 -40.2929 0 
-60.6396 -41.3894 0 
-13.6246 -28.9512 0 
-60.0533 -59.6982 0 
-48.8518 -49.9008 0 
-44.3016 -41.8537 0 
-67.8474 -37.3517 0 
-30.1172 -38.269 0 
-71.2883 -31.8713 0 
-51.1786 -33.133 0 
-41.7659 -67.5191 0 
-54.9883 -59.8025 0 
-65.1063 -43.9246 0 
-39.9801 -66.023 0 
-31.7734 -64.6628 0 
-8.08466 -52.661 0 
-53.9085 -56.5353 0 
-57.3901 -52.2806 0 
-28.0012 -42.4004 0 
-25.4289 -80.4094 0 
-50.4263 -22.3196 0 
-61.8063 -39.9673 0 
-43.0527 -65.0024 0 
-17.8868 -35.4813 0 
-67.3893 -55.7993 0 
-31.7844 -84.1596 0 
-54.755 -51.3215 0 
-6.03866 -56.9917 0 
-40.2335 -71.5194 0 
-41.6877 -12.3744 0 
-29.049 -47.6427 0 
-62.618 -42.0967 0 
-66.6133 -43.5216 0 
-59.6983 -70.2572 0 
-20.6906 -65.2088 0 
-13.1706 -78.8096 0 
-62.2385 -61.5558 0 
7.58508 -38.923 0 
-56.8292 -23.1253 0 
-54.0069 2.57783 0 
-74.5154 37.6121 0 
-74.6992 14.8248 0 
5.9525 -16.2738 0 
-12.9935 -38.1348 0 
-65.3884 -1.17889 0 
-56.5146 -10.8427 0 
6.68823 -24.2131 0 
-59.6538 -8.17916 0 
-58.5983 -33.5934 0 
-31.1517 3.95876 0 
-66.4669 -19.8575 0 
7.54265 20.3775 0 
-26.2364 8.60013 0 
-59.7564 -18.5157 0 
1.75332 20.3117 0 
-16.2052 -11.265 0 
-54.7943 -20.3003 0 
-34.8091 -34.058 0 
7.13192 20.3684 0 
0.940644 -14.5361 0 
-66.1102 -30.2146 0 
-31.6715 26.738 0 
-58.9604 -38.2193 0 
-5.31057 -17.8768 0 
-12.9156 19.8214 0 
-48.5878 -24.9835 0 
-29.9053 -27.3448 0 
-31.8967 26.0046 0 
-30.2694 26.6384 0 
-22.7904 13.6998 0 
-4.15505 -11.3623 0 
-30.8917 -11.0776 0 
-65.8945 2.11633 0 
-64.9238 -27.6103 0 
-65.1381 -12.5175 0 
-14.6143 24.7266 0 
-2.50607 -28.8257 0 
-58.321 -18.9289 0 
-46.8583 -21.4409 0 
-52.2259 -24.2064 0 
-73.7921 15.0583 0 
-49.8568 -52.7703 0 
-60.7353 -22.663 0 
-69.7043 -10.6992 0 
-25.0516 25.3945 0 
-38.9808 -8.69171 0 
-36.4538 -33.0214 0 
-23.2771 -29.3607 0 
-32.6956 19.2224 0 
-41.1359 -20.8424 0 
-39.0422 3.36788 0 
-67.4186 -6.98395 0 
-65.1848 -9.0174 0 
-13.6913 -29.8949 0 
-64.4997 -6.79037 0 
-67.3495 1.5761 0 
-20.4699 20.2765 0 
-73.43 -14.4468 0 
-29.3362 25.9955 0 
-17.1688 -20.9405 0 
-47.045 1.90973 0 
-26.0141 29.9556 0 
-45.8022 -35.7629 0 
-45.7863 27.8436 0 
-46.7723 -34.2416 0 
-64.7085 -3.81146 0 
-78.9654 -18.6644 0 
-65.9398 -4.44467 0 
-61.0484 -9.47887 0 
-58.9999 -32.5144 0 
-58.9965 -32.1182 0 
-60.6595 5.51669 0 
-39.036 -7.9816 0 
-47.0389 -12.0355 0 
-59.0818 -28.4669 0 
2.66485 -10.9584 0 
-28.6972 -2.58333 0 
-55.5882 0.414025 0 
-27.1007 7.3488 0 
-63.3073 -41.4084 0 
-7.71092 -22.3573 0 
-59.6908 -15.9104 0 
-61.1576 -18.4155 0 
-49.5416 -30.2387 0 
-33.3698 19.8988 0 
-70.5587 5.18603 0 
-64.8177 -42.123 0 
-15.6104 22.6888 0 
-74.9591 -17.3952 0 
-54.9769 -9.69727 0 
-59.6679 -19.9444 0 
-65.4422 -0.580656 0 
-2.30187 -30.879 0 
-7.8414 20.2307 0 
-25.6876 -9.19298 0 
-30.6374 24.2452 0 
-19.1985 -17.4466 0 
-45.7919 -4.41274 0 
-1.71418 -31.0654 0 
-22.6204 0.889082 0 
-69.9435 -2.80576 0 
5.74076 -9.56179 0 
-11.5216 -15.037 0 
-42.1757 -6.75042 0 
-13.2149 -19.6233 0 
-22.0266 -13.1329 0 
-70.6971 -0.220798 0 
-65.07 -6.27097 0 
-6.25186 22.1168 0 