<VTKFile type="UnstructuredGrid" version="0.1" byte_order="BigEndian">
  <UnstructuredGrid>
        <Piece NumberOfPoints="8000" NumberOfCells="0" Time= "0.365">      <Points>
        <DataArray name="Position" type="Float32"  NumberOfComponents= "3"  format="ascii">

57.1548 18.0731 0 
60.5954 23.9441 0 
59.2232 28.4676 0 
62.7787 25.3784 0 
63.5393 29.5044 0 
62.0149 36.5624 0 
65.3078 2.41692 0 
65.5587 13.9921 0 
63.8569 24.402 0 
65.0303 25.0703 0 
64.5174 25.0081 0 
64.2641 32.9719 0 
65.9164 34.9719 0 
68.3795 0.120133 0 
68.8797 3.21567 0 
68.8095 4.65944 0 
68.0066 13.3221 0 
68.7277 15.0376 0 
68.1983 17.9797 0 
68.4234 17.0304 0 
68.3683 20.2918 0 
68.3466 24.9423 0 
67.1204 22.8723 0 
67.3255 25.3078 0 
68.5442 24.5195 0 
67.6002 25.8093 0 
67.1306 26.4594 0 
68.5569 25.5569 0 
68.1781 28.7015 0 
66.5791 29.4389 0 
66.3942 27.2708 0 
66.9759 27.884 0 
67.6946 28.4894 0 
68.584 29.9426 0 
67.5067 30.7498 0 
67.5987 32.2636 0 
67.6511 36.388 0 
68.3233 34.7845 0 
68.6668 38.0451 0 
68.3399 38.3294 0 
70.9938 0.945441 0 
70.5012 1.76032 0 
71.6061 3.29069 0 
70.0491 3.794 0 
70.646 2.79029 0 
69.6594 7.37427 0 
71.3186 6.36031 0 
70.8047 6.83742 0 
71.6279 6.01253 0 
70.461 4.83585 0 
70.3976 7.18498 0 
71.0174 8.21479 0 
69.5446 10.9342 0 
69.7314 12.0619 0 
70.0706 11.3398 0 
70.1912 12.6435 0 
69.8775 13.9007 0 
71.0617 15.0372 0 
71.2872 15.2224 0 
70.5275 16.2882 0 
70.6143 16.1948 0 
71.176 18.9873 0 
69.1886 18.566 0 
70.6141 19.1691 0 
69.7319 18.5989 0 
69.2893 18.7432 0 
69.2132 19.1306 0 
70.3843 18.1908 0 
71.0247 20.6602 0 
70.8031 19.9863 0 
69.551 20.2945 0 
69.9348 20.8408 0 
69.3356 24.0417 0 
70.7498 21.8846 0 
71.5935 21.9789 0 
68.9233 23.1182 0 
71.1801 23.9412 0 
71.192 24.0305 0 
69.0264 26.5532 0 
69.5361 25.1602 0 
70.4394 25.0682 0 
70.6938 27.2099 0 
69.6073 27.8128 0 
71.0515 30.8954 0 
70.9479 30.6196 0 
69.5954 30.95 0 
71.4055 30.2928 0 
69.7664 29.7495 0 
71.6011 33.742 0 
70.6537 33.2799 0 
69.3212 34.5332 0 
70.0386 34.1188 0 
70.109 34.8333 0 
69.1758 35.2603 0 
68.947 35.4431 0 
69.2205 36.9136 0 
70.0725 36.5525 0 
70.3781 38.7801 0 
73.1272 39.3734 0 
73.8016 0.329171 0 
73.3571 2.04578 0 
73.7269 0.899272 0 
72.2572 0.722073 0 
73.0599 0.958526 0 
72.5412 1.31036 0 
71.156 38.3949 0 
72.9336 38.5968 0 
71.8947 0.376211 0 
73.3427 2.48222 0 
71.9609 3.12412 0 
73.561 2.38926 0 
73.5197 3.455 0 
71.68 2.38097 0 
73.6915 3.54271 0 
73.6385 4.63444 0 
73.2746 3.90431 0 
72.1435 6.58591 0 
72.9074 7.63131 0 
73.3261 4.8925 0 
71.636 4.94053 0 
73.2395 5.50912 0 
71.7544 8.10753 0 
71.7856 7.6139 0 
72.0847 7.95542 0 
73.1465 10.238 0 
73.2106 8.30709 0 
73.8029 9.23759 0 
72.2332 9.35392 0 
73.2024 10.2222 0 
71.7812 11.9771 0 
72.21 10.6979 0 
73.2199 12.1017 0 
73.7801 11.9095 0 
71.3847 10.3782 0 
72.8939 13.9037 0 
71.4238 14.2113 0 
72.5107 11.7267 0 
71.4397 12.7329 0 
73.1524 14.7136 0 
72.2949 14.9202 0 
73.296 13.4723 0 
73.1303 16.391 0 
73.6085 17.2456 0 
72.5654 16.7139 0 
71.3125 15.9699 0 
72.5815 15.0376 0 
72.46 15.3896 0 
73.2065 16.189 0 
72.8297 16.3115 0 
71.6189 16.5335 0 
73.6446 16.6141 0 
72.4439 16.8926 0 
73.8511 17.0816 0 
72.8163 18.2126 0 
73.4675 19.228 0 
71.6984 17.5536 0 
72.8231 19.2072 0 
72.2667 20.9479 0 
71.6512 20.145 0 
72.3942 20.1388 0 
73.6374 22.253 0 
73.4897 22.477 0 
73.5034 21.0233 0 
73.4595 21.0866 0 
71.64 22.9999 0 
72.3374 19.9485 0 
72.1962 21.4992 0 
72.7482 23.3967 0 
72.7486 21.9616 0 
72.3703 24.1602 0 
71.8411 22.4883 0 
73.3189 24.3288 0 
73.4841 23.6375 0 
73.7299 24.7993 0 
73.4502 24.3908 0 
73.4564 24.3158 0 
73.6932 25.1788 0 
72.1663 26.5157 0 
73.2481 25.4441 0 
73.8937 25.2537 0 
73.3081 26.6683 0 
73.2368 24.8361 0 
72.8912 25.385 0 
72.123 24.8197 0 
71.5227 26.5419 0 
72.5541 28.1614 0 
72.1763 28.1642 0 
73.9991 27.7303 0 
73.2024 29.9256 0 
71.9485 28.4228 0 
72.4959 29.4089 0 
73.2749 29.3932 0 
71.6647 29.0418 0 
71.6129 31.7227 0 
73.4929 31.5992 0 
73.3436 30.8429 0 
73.3306 33.262 0 
73.4107 32.9949 0 
72.5967 32.5865 0 
73.3936 33.4623 0 
72.6411 32.6293 0 
73.1539 33.7672 0 
73.6083 32.8604 0 
73.175 33.2183 0 
71.4208 32.4613 0 
71.7309 32.3823 0 
72.3503 34.7425 0 
72.4788 33.5019 0 
72.7464 32.5926 0 
72.1034 35.236 0 
71.958 34.8806 0 
72.0939 34.6708 0 
71.7297 35.4219 0 
72.3872 36.2425 0 
72.2155 36.2836 0 
73.5037 36.8096 0 
73.6607 35.88 0 
71.8975 38.9541 0 
73.232 37.6295 0 
73.8047 37.2433 0 
72.2927 37.7004 0 
71.7038 37.9919 0 
73.2579 37.473 0 
72.7209 38.7304 0 
74.4703 0.087521 0 
75.2625 1.91658 0 
73.9702 1.07631 0 
74.2215 0.41865 0 
74.0714 1.72251 0 
74.709 0.519315 0 
76.4361 2.14979 0 
76.5036 0.450233 0 
76.0371 1.90102 0 
76.3631 2.76484 0 
74.3419 3.27345 0 
74.6211 2.89414 0 
74.1966 4.39838 0 
75.8281 4.23638 0 
73.9664 3.9037 0 
74.836 3.20944 0 
75.4978 3.15176 0 
76.2488 6.29682 0 
76.296 6.85432 0 
74.6995 5.02837 0 
75.6791 5.44797 0 
75.9956 5.94806 0 
74.5614 4.69699 0 
75.2088 6.92665 0 
76.0481 7.01147 0 
74.3281 7.19163 0 
76.0599 6.17814 0 
74.2358 6.86968 0 
74.1708 5.80975 0 
75.8579 6.25352 0 
74.5336 8.87087 0 
74.3647 9.28797 0 
75.2387 8.54406 0 
75.8287 8.24254 0 
76.2829 7.72411 0 
75.6836 12.0874 0 
74.8649 9.44288 0 
74.5788 10.6923 0 
76.1413 8.96223 0 
76.3528 11.8078 0 
74.532 11.2523 0 
76.4864 10.6518 0 
75.0981 11.4553 0 
76.3281 11.1179 0 
74.7801 11.8144 0 
74.2319 9.56651 0 
76.2092 10.0226 0 
75.0572 11.4299 0 
74.3544 11.277 0 
74.2425 10.3874 0 
74.3828 10.928 0 
76.2048 11.6038 0 
75.4793 12.1728 0 
75.4549 10.3702 0 
73.8961 12.8885 0 
73.8757 14.0721 0 
76.0411 13.1675 0 
75.449 11.8402 0 
74.7201 12.8526 0 
75.4193 14.6693 0 
74.5289 12.4412 0 
76.0441 12.2822 0 
75.4856 13.1875 0 
75.5052 12.7409 0 
76.1482 14.0422 0 
76.3389 14.6918 0 
74.0997 12.4307 0 
75.3303 13.6419 0 
74.1831 14.3824 0 
76.1046 13.4413 0 
76.2603 12.0149 0 
74.6603 15.6102 0 
76.413 15.0812 0 
74.3833 14.2079 0 
75.8194 15.0996 0 
75.9437 14.8213 0 
74.4349 16.1216 0 
76.3059 15.6217 0 
76.552 15.2955 0 
75.2774 16.9092 0 
76.604 15.7253 0 
74.8389 14.9662 0 
74.5707 15.5627 0 
75.458 16.409 0 
75.6381 16.5928 0 
74.5073 16.3387 0 
75.8294 15.0629 0 
74.0047 15.3852 0 
74.5452 17.0238 0 
76.1515 17.578 0 
74.7538 18.7403 0 
76.059 19.5958 0 
75.5226 19.1031 0 
74.6318 18.3075 0 
76.4719 19.0168 0 
75.6856 18.2049 0 
74.6931 17.8278 0 
75.105 19.0681 0 
76.381 16.6167 0 
75.4158 17.4883 0 
74.2196 20.0702 0 
75.0455 21.303 0 
76.257 20.7376 0 
75.8631 19.4569 0 
75.7082 20.7399 0 
74.5033 20.9551 0 
75.969 21.1485 0 
74.4647 22.3697 0 
76.4828 22.0995 0 
76.2225 21.4423 0 
75.5227 21.3773 0 
74.6639 20.2482 0 
75.9665 19.69 0 
75.3816 20.9799 0 
75.5116 23.4903 0 
75.5271 22.5192 0 
74.3607 23.4727 0 
73.9369 21.8577 0 
76.157 23.3044 0 
74.3154 22.3747 0 
75.2427 22.7822 0 
74.5555 24.8091 0 
74.2128 22.9855 0 
75.7363 21.9058 0 
74.148 21.8486 0 
74.0657 22.8508 0 
76.1201 23.7306 0 
76.5258 22.5636 0 
74.782 23.7424 0 
73.7631 25.9696 0 
73.9865 25.1667 0 
74.8492 25.7254 0 
75.3693 25.767 0 
75.1166 25.8542 0 
75.8626 25.7143 0 
76.1249 24.1666 0 
76.3192 25.2701 0 
76.3725 26.0718 0 
75.2889 25.5555 0 
75.0756 24.1931 0 
76.5627 25.513 0 
75.9508 26.398 0 
76.241 26.9147 0 
76.3098 24.346 0 
75.069 26.2069 0 
75.7515 25.3197 0 
74.4076 26.783 0 
76.1274 27.1832 0 
75.7853 28.0539 0 
76.0357 27.3616 0 
74.7234 27.6399 0 
76.47 28.4664 0 
75.9246 28.9674 0 
75.4718 27.8515 0 
76.1062 29.5241 0 
75.5083 27.6431 0 
74.9616 28.1995 0 
75.8128 28.0039 0 
75.314 27.0666 0 
75.7393 26.989 0 
74.6556 29.2291 0 
76.216 27.9437 0 
76.5244 28.909 0 
75.0566 29.2204 0 
74.7325 28.624 0 
75.3894 27.1753 0 
74.854 31.7198 0 
75.11 29.5586 0 
75.6519 31.2838 0 
76.1762 29.6348 0 
75.3838 31.0988 0 
76.1362 30.3747 0 
74.497 31.058 0 
75.0386 30.0348 0 
74.1194 29.953 0 
76.566 31.0334 0 
74.0478 33.3719 0 
75.3474 32.5502 0 
74.4321 33.3095 0 
75.8905 32.7912 0 
74.43 33.808 0 
75.9331 34.765 0 
73.7962 32.5429 0 
75.8041 34.8414 0 
74.4785 32.8593 0 
74.2168 32.469 0 
76.0985 33.1091 0 
75.6862 33.2309 0 
75.5086 32.4162 0 
74.5879 32.3437 0 
74.6303 31.7254 0 
76.0073 34.4336 0 
75.3851 32.8667 0 
76.5642 33.5198 0 
74.5927 33.7581 0 
74.1067 36.3798 0 
76.2404 36.8726 0 
75.3776 35.2375 0 
74.7826 35.3965 0 
75.9523 36.4654 0 
74.5778 36.1516 0 
74.064 36.8722 0 
75.7344 34.4846 0 
75.7246 34.7522 0 
74.814 35.5298 0 
76.3282 35.4042 0 
75.861 37.9402 0 
74.1666 37.5937 0 
74.2971 37.2199 0 
75.5139 38.2547 0 
74.9883 37.2929 0 
75.154 38.4847 0 
75.9152 37.7162 0 
77.1227 0.168506 0 
77.5602 1.62119 0 
77.8059 1.77306 0 
77.0602 0.782322 0 
78.1642 1.74501 0 
77.9289 38.6913 0 
77.6762 0.703876 0 
76.8033 1.61501 0 
78.5348 1.23936 0 
77.5234 2.68863 0 
76.8744 4.24892 0 
78.4872 3.32452 0 
78.7447 4.02141 0 
77.0125 4.28165 0 
78.9474 3.31179 0 
76.6625 3.21449 0 
79.0124 3.99832 0 
77.4714 3.87297 0 
76.5693 4.56507 0 
77.6036 4.92622 0 
76.7363 5.4484 0 
76.8838 6.76763 0 
76.9349 5.13865 0 
77.7434 6.74601 0 
77.5422 5.18952 0 
77.3369 5.67971 0 
78.8332 4.75079 0 
77.8203 4.62743 0 
78.4408 6.30952 0 
77.7208 5.97575 0 
78.0723 5.35166 0 
77.0917 6.08591 0 
77.0706 7.9244 0 
77.4597 8.61003 0 
76.5369 7.99743 0 
78.0069 9.25563 0 
77.5122 8.47209 0 
76.8092 9.14439 0 
78.7018 7.57843 0 
76.9913 9.82217 0 
77.2924 6.66334 0 
78.4907 7.07523 0 
78.6176 7.53106 0 
78.4343 9.23921 0 
77.8123 9.47805 0 
77.1216 7.62392 0 
77.4759 11.4209 0 
76.9548 10.7993 0 
76.6244 10.6829 0 
78.4842 12.1528 0 
78.6862 10.8398 0 
77.2992 9.80376 0 
76.3797 10.9686 0 
76.4149 11.9117 0 
78.7442 11.7508 0 
76.8102 11.8445 0 
78.6862 11.5473 0 
77.5141 10.8886 0 
76.6466 10.3321 0 
78.0366 9.91242 0 
76.8764 10.2289 0 
78.6033 10.3895 0 
78.5369 10.5363 0 
77.6529 13.9838 0 
78.8027 12.1197 0 
78.7836 11.683 0 
78.3826 15.4044 0 
78.5257 14.7228 0 
78.9889 13.7593 0 
77.4489 11.7465 0 
78.2357 12.3607 0 
77.4695 11.7174 0 
77.4066 13.5434 0 
76.4519 14.8127 0 
76.9848 12.3731 0 
77.1176 16.5252 0 
77.4305 16.0627 0 
78.3333 16.5359 0 
77.6234 16.3086 0 
76.9079 15.1041 0 
[...]
      <PointData Vectors="vector">
        <DataArray type="Float32" Name="Velocity" NumberOfComponents="3" format="ascii">

-247.14 -185.82 0 
-231.477 -103.832 0 
-217.522 -134.619 0 
-204.114 -67.0263 0 
-233.495 -126.615 0 
-213.038 -121.931 0 
-201.237 -19.8056 0 
-222.551 -80.1046 0 
-209.092 -99.2805 0 
-178.278 72.2329 0 
-180.913 -28.5737 0 
-195.781 -139.632 0 
-277.41 -103.383 0 
-201.74 -106.189 0 
-212.846 -162.195 0 
-230.779 -102.506 0 
-199.898 31.9353 0 
-203.504 -106.285 0 
-196.948 -77.3016 0 
-207.101 -50.3733 0 
-229.61 -83.4313 0 
-180.03 -44.0703 0 
-188.003 90.4104 0 
-264.363 -191.614 0 
-169.285 99.6482 0 
-269.561 -148.541 0 
-187.144 -39.0521 0 
-232.147 -184.924 0 
-229.013 -150.883 0 
-208.07 -180.667 0 
-251.255 -135.919 0 
-143.583 107.705 0 
-172.926 8.34812 0 
-194.501 -153.823 0 
-244.696 -135.373 0 
-189.391 -175.542 0 
-195.439 -146.547 0 
-242.707 -106.516 0 
-234.43 -115.028 0 
-217.11 -169.122 0 
-212.068 -10.628 0 
-200.685 -182.579 0 
-227.322 -120.573 0 
-181.932 -98.9451 0 
-217.075 -189.994 0 
-258.291 -83.969 0 
-217.304 -99.782 0 
-209.109 -113.17 0 
-206.534 -113.975 0 
-245.65 -112.663 0 
-219.567 -64.5994 0 
-212.311 -67.0269 0 
-209.337 -68.8373 0 
-198.316 63.6861 0 
-196.981 -97.6803 0 
-230.191 -61.2303 0 
-230.879 34.7497 0 
-224.025 -113.019 0 
-188.803 -56.351 0 
-211.418 -105.511 0 
-236.174 -54.9626 0 
-273.932 -74.6919 0 
-235.795 -57.5822 0 
-245.628 -79.2385 0 
-211.117 -76.0876 0 
-177.831 -52.0453 0 
-177.822 -29.7289 0 
-192.384 -86.1659 0 
-236.245 -59.7699 0 
-209.608 -96.9542 0 
-216.441 -43.333 0 
-198.987 -45.3162 0 
-224.303 -51.6592 0 
-205.007 -10.5901 0 
-233.074 -72.8356 0 
-138.375 79.0083 0 
-184.473 -41.0252 0 
-239.246 -233.532 0 
-191.639 -67.3958 0 
-162.041 67.321 0 
-222.534 -23.0574 0 
-234.122 -25.1089 0 
-208.955 18.6708 0 
-184.826 93.2505 0 
-225.888 -37.4924 0 
-195.898 -2.28675 0 
-221.958 -128.839 0 
-218.429 -162.794 0 
-193.756 -44.2017 0 
-137.451 81.3206 0 
-231.356 -179.954 0 
-229.338 -180.148 0 
-248.329 -17.8233 0 
-241.695 -158.289 0 
-209.198 -142.393 0 
-151.625 92.2876 0 
-157.888 -0.94999 0 
-188.897 -160.885 0 
-260.037 -155.471 0 
-259.483 -128.927 0 
-196.633 -122.441 0 
-254.266 -156.936 0 
-234.56 -181.917 0 
-227.302 -144.131 0 
-257.983 -169.055 0 
-241.602 -123.491 0 
-287.763 -187.293 0 
-253.241 -152.904 0 
-273.498 -141.666 0 
-166.824 -167.251 0 
-230.201 -175.695 0 
-181.459 -124.065 0 
-260.144 -99.7143 0 
-195.825 -130.774 0 
-201.178 147.672 0 
-164.553 -19.5171 0 
-219.025 -143.132 0 
-207.941 -80.7028 0 
-180.703 -71.0234 0 
-206.108 -157.943 0 
-219.104 -17.0793 0 
-192.642 -106.9 0 
-209.168 -130.926 0 
-184.988 -107.856 0 
-189.063 -95.3591 0 
-204.817 -68.2918 0 
-223.497 -74.9628 0 
-242.242 -122.184 0 
-179.941 9.13001 0 
-181.488 -88.3355 0 
-193.527 -121.68 0 
-231.047 -153.009 0 
-175.35 -76.3086 0 
-267.326 -121.692 0 
-208.586 -101.036 0 
-173.233 -119.709 0 
-191.686 -85.1876 0 
-201.432 12.2653 0 
-190.666 -105.374 0 
-182.108 -76.11 0 
-200.545 -44.7182 0 
-188.045 -61.9818 0 
-200.512 -81.9772 0 
-215.107 -85.673 0 
-248.454 -81.36 0 
-253.437 -102.01 0 
-268.525 -113.112 0 
-243.462 -123.48 0 
-231.363 -72.2898 0 
-232.628 -88.4238 0 
-227.33 -32.2783 0 
-176.253 -71.6723 0 
-230.761 -91.4258 0 
-207.981 -113.498 0 
-218.828 -72.2148 0 
-205.992 -104.165 0 
-193.644 -104.029 0 
-225.473 -98.1287 0 
-202.035 -94.9387 0 
-173.834 -77.7681 0 
-250.826 -58.3135 0 
-227.565 -44.6247 0 
-234.771 -66.5256 0 
-182.521 -73.8869 0 
-155.612 -93.4639 0 
-174.206 88.6477 0 
-188.332 -109.057 0 
-219.168 -84.2967 0 
-216.549 -70.9269 0 
-187.597 -56.5933 0 
-146.311 67.6069 0 
-223.55 -74.7742 0 
-165.518 -100.743 0 
-197.311 -53.5435 0 
-165.477 -50.8052 0 
-224.248 -50.3411 0 
-199.98 -85.9709 0 
-218.015 -189.575 0 
-217.488 -245.647 0 
-173.078 68.5197 0 
-241.905 -44.3005 0 
-174.717 -35.0682 0 
-132.251 85.9459 0 
-243.428 -197.694 0 
-209.371 -68.7332 0 
-196.561 -167.815 0 
-153.287 -21.6278 0 
-201.014 -196.424 0 
-192.929 -195.549 0 
-189.813 87.349 0 
-201.122 -42.6686 0 
-229.289 -35.9859 0 
-175.994 -37.454 0 
-206.622 -75.1387 0 
-203.684 -44.0887 0 
-236.473 -161.452 0 
-212.5 -192.19 0 
-240.046 -143.239 0 
-249.202 -177.269 0 
-234.77 -205.532 0 
-218.586 14.7035 0 
-215.92 -51.2472 0 
-201.833 -35.8633 0 
-214.782 -52.4075 0 
-224.015 -170.657 0 
-248.627 -3.37204 0 
-204.371 -154.014 0 
-228.188 -36.6614 0 
-222.793 -4.75239 0 
-206.195 -186.605 0 
-180.382 -26.1736 0 
-162.997 -12.1298 0 
-168.728 78.1167 0 
-193.512 -149.708 0 
-188.062 5.60664 0 
-252.888 -35.0093 0 
-209.208 -6.20663 0 
-218.136 6.59875 0 
-187.254 -126.464 0 
-198.647 8.1354 0 
-203.597 -11.7939 0 
-215.647 27.9061 0 
-197.42 -150.922 0 
-245.215 -23.3781 0 
-262.864 -139.514 0 
-212.888 -147.356 0 
-239.413 -150.748 0 
-246.548 -168.44 0 
-234.886 -139.465 0 
-177.644 -16.688 0 
-162.892 -4.9854 0 
-204.109 -149.747 0 
-161.41 11.0635 0 
-160.213 8.94232 0 
-243.809 -188.07 0 
-217.559 -191.053 0 
-235.12 -135.255 0 
-227.497 -182.547 0 
-247.343 -142.505 0 
-167.865 -14.0054 0 
-237.059 28.907 0 
-239.132 -137.65 0 
-204.409 -9.28505 0 
-211.349 -159.385 0 
-235.664 -150.578 0 
-216.063 -108.929 0 
-163.621 -157.083 0 
-184.087 -154.704 0 
-245.798 -123.747 0 
-214.526 -154.877 0 
-237.832 -102.737 0 
-202.998 -154.611 0 
-219.075 -146.761 0 
-198.089 -172.524 0 
-208.881 -139.191 0 
-254.216 -160.077 0 
-179.925 -133.257 0 
-153.661 -16.6376 0 
-212.757 -104.448 0 
-177.912 11.612 0 
-171.544 0.642855 0 
-195.016 5.8396 0 
-214.398 -118.54 0 
-229.502 -119.802 0 
-178.967 -10.5595 0 
-177.37 -123.761 0 
-228.293 -153.548 0 
-252.246 -134.573 0 
-165.919 -87.4922 0 
-217.446 -103.975 0 
-226.26 -149.721 0 
-208.808 -158.387 0 
-203.766 -107.724 0 
-235.916 -86.5478 0 
-239.034 -126.96 0 
-278.862 -61.2737 0 
-248.286 -75.0679 0 
-230.942 -84.9986 0 
-250.495 -98.5501 0 
-210.814 -75.6652 0 
-194.638 -74.4641 0 
-217.561 -17.5618 0 
-206.38 -135.811 0 
-211.409 -3.02809 0 
-215.887 -88.2029 0 
-200.39 -91.6921 0 
-209.025 -127.286 0 
-184.87 -83.6816 0 
-200.455 -117.301 0 
-207.84 -66.5463 0 
-164.532 19.4766 0 
-201.577 -70.5853 0 
-204.79 -63.143 0 
-188.538 -110.434 0 
-229.607 -82.7676 0 
-205.866 -102.995 0 
-141.329 -85.0464 0 
-202.614 -92.6609 0 
-201.795 -127.23 0 
-212.159 -97.643 0 
-183.342 -56.4498 0 
-179.427 51.0319 0 
-184.763 -69.9374 0 
-238.175 -100.628 0 
-254.303 -94.4662 0 
-150.52 73.9135 0 
-185.623 -88.1358 0 
-195.745 -81.2815 0 
-203.09 -92.5875 0 
-203.17 -96.9319 0 
-185.33 -86.1114 0 
-268.661 -73.2824 0 
-212.043 -58.5303 0 
-184.825 -62.9372 0 
-188.812 -87.7551 0 
-157.175 56.1965 0 
-173.615 -34.8106 0 
-219.137 -213.558 0 
-169.855 -37.2248 0 
-194.974 -42.5091 0 
-137.919 79.9529 0 
-190.338 -98.4418 0 
-239.919 -108.554 0 
-184.972 -32.3852 0 
-236.317 -93.3728 0 
-208.797 -220.858 0 
-238.855 -31.9582 0 
-179.283 96.8994 0 
-234.227 -85.0873 0 
-195.401 -60.9157 0 
-184.111 -110.361 0 
-182.396 -210.575 0 
-166.855 -247.884 0 
-199.861 -23.7264 0 
-252.626 -37.3902 0 
-196.134 -192.935 0 
-213.004 -49.96 0 
-188.288 -24.6582 0 
-234.064 -87.8108 0 
-250.244 -84.4511 0 
-222.481 -63.9416 0 
-216.297 -46.2974 0 
-229.808 2.20628 0 
-230.772 -144.181 0 
-223.481 -236.018 0 
-204.545 -149.828 0 
-231.695 -60.3505 0 
-147.106 -168.225 0 
-229.939 -15.3296 0 
-202.232 -188.894 0 
-201.636 -72.9507 0 
-223.073 -69.8902 0 
-202.728 -176.166 0 
-222.083 -46.8421 0 
-224.534 -52.1571 0 
-231.813 -45.4972 0 
-208.225 -193.694 0 
-195.584 -193.444 0 
-175.871 -183.925 0 
-190.403 -84.8967 0 
-186.339 -203.958 0 
-153.378 111.373 0 
-216.014 -46.6801 0 
-224.87 -199.506 0 
-213.413 -54.3698 0 
-204.346 -200.569 0 
-223.353 -210.533 0 
-249.737 -156.082 0 
-236.823 -33.098 0 
-214.113 -51.526 0 
-226.874 -170.959 0 
-190.054 77.572 0 
-117.492 66.4823 0 
-240.472 -69.5628 0 
-185.825 101.215 0 
-213.301 -160.969 0 
-209.102 -35.7386 0 
-208.112 -164.865 0 
-207.871 -172.419 0 
-226.487 -141.721 0 
-221.62 -152.842 0 
-222.128 -190.837 0 
-207.819 -185.064 0 
-182.331 -167.477 0 
-253.92 -163.496 0 
-231.247 8.37902 0 
-144.593 -39.4852 0 
-175.981 -171.857 0 
-193.287 -175.047 0 
-205.047 -178.358 0 
-204.472 -21.7807 0 
-205.339 -145.786 0 
-197.409 -50.7602 0 
-190.97 -45.7733 0 
-207.445 -11.3101 0 
-248.421 -189.033 0 
-235.237 -147.949 0 
-234.291 -135.762 0 
-216.084 -182.361 0 
-214.808 -152.568 0 
-221.393 -155.115 0 
-202.772 14.6556 0 
-153.206 -12.5518 0 
-185.808 -186.543 0 
-234.557 -157.257 0 
-183.138 -154.102 0 
-182.81 -197.511 0 
-179.258 23.9185 0 
-208.315 13.7026 0 
-237.486 -179.717 0 
-212.795 -171.894 0 
-178.689 103.568 0 
-239.175 -167.914 0 
-226.59 -182.485 0 
-223.984 -189.531 0 
-238.09 -158.741 0 
-217.367 -136.058 0 
-243.642 -109.613 0 
-199.61 -167.357 0 
-229.307 -178.088 0 
-155.962 11.2092 0 
-238.685 -162.423 0 
-184.671 4.35648 0 
-210.997 -195.343 0 
-205.759 4.47323 0 
-230.702 -176.303 0 
-152.108 108.285 0 
-216.642 9.18031 0 
-225.778 -183.526 0 
-208.762 -157.277 0 
-228.324 -158.845 0 
-216.661 -154.899 0 
-207.981 -118.465 0 
-194.097 -148.081 0 
-231.327 -149.312 0 
-258.158 -147.368 0 
-173.886 -187.548 0 
-215.99 -171.54 0 
-161.912 16.7615 0 
-228.409 -180.559 0 
-210.903 -182.206 0 
-198.8 -160.831 0 
-175.606 -146.619 0 
-171.796 -127.63 0 
-236.159 -133.421 0 
-224.846 -147.851 0 
-253.596 -140.093 0 
-233.855 -107.233 0 
-236.621 -132.292 0 
-153.035 -158.847 0 
-170.676 -147.111 0 
-206.271 -118.837 0 
-214.673 -110.011 0 
-259.927 -161.593 0 
-230.24 -6.44229 0 
-184.321 -151.912 0 
-209.735 -165.948 0 
-244.326 -121.541 0 
-230.545 -182.296 0 
-229.923 -153.482 0 
-174.922 -133.531 0 
-187.27 -172.225 0 
-168.68 24.5332 0 
-236.363 -142.06 0 
-185.921 -138.74 0 
-170.892 -97.9832 0 
-231.471 -135.187 0 
-206.752 -137.145 0 
-210.757 -144.04 0 
-266.56 -146.774 0 
-166.819 -151.58 0 
-203.235 -128.914 0 
-246.53 -123.224 0 
-234.977 -131.8 0 
-201.84 -91.6861 0 
-208.286 -152.74 0 
-182.755 26.1692 0 
-215.489 -93.9846 0 
-220.508 -148.182 0 
-180.472 -53.0929 0 
-199.898 -111.907 0 
-203.397 -126.366 0 
-152.586 23.4868 0 
-192.389 -7.53539 0 
-228.335 -125.648 0 
-185.782 -136.207 0 
-209.003 -101.343 0 
-169.559 -133.608 0 
-135.481 -76.0886 0 
-188.133 -95.3197 0 
-185.342 -119.546 0 
-141.656 -138.889 0 
-204.269 -111.859 0 
-195.034 -111.569 0 
-203.421 -114.292 0 
-226.218 -105.401 0 
-214.59 -127.03 0 
-186.852 -104.716 0 
-232.634 -92.6888 0 
-197.281 -127.954 0 
-216.681 -123.422 0 
-228.46 -143.175 0 
-219.836 -77.9047 0 
-219.017 -106.474 0 
-145.299 46.5638 0 
-209.613 -75.1437 0 
-174.634 34.7564 0 
-214.55 -144.819 0 
-202.71 -131.028 0 
-209.778 -134.904 0 
-226.922 -130.802 0 
-224.948 -100.069 0 
-190.256 -126.802 0 
-243.706 -134.826 0 
-209.814 -109.172 0 
-231.986 -99.0705 0 
-200.758 -131.702 0 
-178.537 -124.434 0 
-171.496 1.06292 0 
-198.82 -86.1328 0 
-164.903 -54.6151 0 
-206.186 29.3578 0 
-222.057 -106.187 0 
-192.846 -120.552 0 
-206.2 -98.5311 0 
-187.905 -107.484 0 
-184.366 -77.478 0 
-185.906 -105.745 0 
-150.95 30.4497 0 
-204.15 -100.662 0 
-196.514 20.3662 0 
-167.36 -75.6107 0 
-216.247 -86.1478 0 
-243.21 -84.2777 0 
-222.241 -82.0044 0 
-247.13 -83.2404 0 
-224.586 -111.254 0 
-184.911 -79.0877 0 
-188.936 -117.612 0 
-209.205 -119.664 0 
-244.025 -74.6732 0 
-183.991 -59.6145 0 
-176.557 -102.316 0 
-174.994 -87.3237 0 
-218.702 -98.2951 0 
-197.052 -92.8507 0 
-211.935 -53.3009 0 
-211.367 -97.5206 0 
-198.213 -90.0414 0 
-225.193 -87.1626 0 
-246.43 -83.7218 0 
-133.028 -65.7314 0 
-229.522 -119.163 0 
-179.959 -57.1548 0 
-200.241 -77.9127 0 
-198.351 -95.4453 0 
-134.961 31.0519 0 
-178.002 -101.987 0 
-207.378 -66.2724 0 
-201.021 -102.201 0 
-191.797 -64.8243 0 
-226.692 -76.4667 0 
-198.85 -203.149 0 
-189.73 -30.2495 0 
-241.205 -32.2204 0 
-203.075 -81.604 0 
-199.522 -261.676 0 
-149.15 -60.9762 0 
-177.202 -92.5189 0 
-198.269 -103.886 0 
-179.177 -80.2676 0 
-195.262 -76.0417 0 
-194.091 -76.1866 0 
-226.73 -63.0872 0 
-217.856 -220.926 0 
-232.39 -229.418 0 
-224.63 -55.3686 0 
-184.478 -87.7729 0 
-239.244 -235.681 0 
-198.235 -56.4617 0 
-208.321 -240.363 0 
-187.792 -33.0917 0 
-163.904 -60.3504 0 
-183.595 -73.8012 0 
-184.084 -73.6419 0 
-185.974 -198.941 0 
-194.001 -86.3408 0 
-204.822 -28.4472 0 
-141.748 -207.794 0 
-200.837 -212.655 0 
-227.152 -197.603 0 
-197.743 -55.7072 0 
-202.811 -55.9397 0 
-198.465 -172.336 0 
-206.202 69.7986 0 
-198.22 -65.7445 0 
-201.451 -70.353 0 
-201.204 -73.7242 0 
-233.172 -184.114 0 
-173.014 -51.0294 0 
-203.859 -71.5357 0 
-174.345 -215.765 0 
-230.011 -37.7223 0 
-194.825 -197.944 0 
-189.631 16.09 0 
-161.142 -208.886 0 
-166.114 -67.7829 0 
-262.553 -35.2394 0 
-198.916 8.88078 0 
-177.5 -37.4859 0 
-207.722 -43.2174 0 
-190.826 -47.8058 0 
-226.408 -193.811 0 
-213.762 -204.35 0 
-195.949 -193.756 0 
-232.025 -162.904 0 
-213.305 -186.282 0 
-185.013 -2.6156 0 
-233.371 -191.701 0 
-208.756 -191.107 0 
-167.719 -145.594 0 
-209.737 -218.945 0 
-203.565 13.7478 0 
-215.407 -57.3717 0 
-202.316 -40.3366 0 
-187.357 -37.5266 0 
-218.602 -210.477 0 
-213.082 1.65735 0 
-201.989 18.0041 0 
-259.12 -209.916 0 
-200.211 -45.9296 0 
-213.647 -212.532 0 
-203.902 -20.4943 0 
-144.497 91.2058 0 
-218.093 8.05634 0 
-212.696 -178.155 0 
-191.852 7.10149 0 
-126.618 93.6535 0 
-205.616 -184.275 0 
-195.915 -194.444 0 
-184.123 -201.104 0 
-194.903 -143.354 0 
-194.674 -163.692 0 
-214.41 -167.718 0 
-220.498 -160.006 0 
-214.083 -171.177 0 
-213.527 -172.443 0 
-180.191 -166.162 0 
-208.845 -12.8623 0 
-158.177 -30.5555 0 
-148.903 11.722 0 
-152.398 -205.644 0 
-213.608 -168.87 0 
-172.268 -36.9575 0 
-172.954 114.32 0 
-192.252 -157.569 0 
-234.284 -150.897 0 
-224.757 -187.327 0 
-216.553 -141.848 0 
-241.175 -201.675 0 
-209.047 -41.6798 0 
-193.245 -168.906 0 
-155.07 -181.603 0 
-196.235 -169.102 0 
-131.058 104.726 0 
-178.011 -162.421 0 
-174.19 -68.1277 0 
-212.887 -189.144 0 
-215.672 -131.837 0 
-240.573 -163.269 0 
-243.346 -171.03 0 
-173.33 -27.0982 0 
-181.801 -150.411 0 
-172.808 106.984 0 
-189.556 -18.0198 0 
-210.067 -189.094 0 
-181.838 -180.839 0 
-214.773 -161.677 0 
-225.136 -143.358 0 
-199.211 -123.831 0 
-188.41 -158.72 0 
-188.148 -121.816 0 
-233.167 -183.176 0 
-185.276 -156.5 0 
-198.75 -139.369 0 
-192.215 -125.088 0 
-233.313 -196.568 0 
-188.336 -158.511 0 
-208.304 -165.041 0 
-202.777 -138.379 0 
-152.461 -144.876 0 
-197.234 -123.666 0 
-249.708 -176.201 0 
-181.126 -162.314 0 
-154.417 -38.0945 0 
-155.638 -152.133 0 
-242.535 -186.177 0 
-204.807 -139.346 0 
-225.6 -163.066 0 
-247.348 -168.288 0 
-179.748 -129.609 0 
-228.933 -141.767 0 
-215.268 -171.964 0 
-193.328 -124.587 0 
-237.419 -145.322 0 
-260.732 -169.435 0 
-218.279 -150.702 0 
-182.692 -122.972 0 
-169.285 -166.85 0 
-208.027 -177.121 0 
-157.481 -142.968 0 
-186.169 -149.579 0 
-248.111 -175.657 0 
-226.347 -162.521 0 
-155.509 43.8644 0 
-203.469 -168.905 0 
-196.084 -180.128 0 
-188.29 -164.346 0 
-224.708 -176.233 0 
-150.611 -141.92 0 
-260.13 -153.231 0 
-167.467 53.4992 0 
-257.403 -159.764 0 
-195.348 -124.426 0 
-244.824 -180.646 0 
-197.523 -151.426 0 
-137.195 -23.2884 0 
-241.877 -136.639 0 
-219.303 -139.216 0 
-234.91 -156.222 0 
-213.053 -116.867 0 
-231.108 -122.338 0 
-209.173 -117.141 0 
-187.666 -106.996 0 
-218.902 -111.801 0 
-217.506 -145.066 0 
-200.419 -137.238 0 
-246.576 -128.002 0 
-201.975 -140.793 0 
-207.524 -148.167 0 
-161.063 -142.83 0 
-164.899 36.3696 0 
-191.221 -128.594 0 
-214.162 -135.277 0 
-205.073 -125.402 0 
-191.862 -122.197 0 
-170.922 -39.732 0 
-210.054 -95.1537 0 
-250.012 -127.893 0 
-224.347 -107.769 0 
-195.947 -104.22 0 
-218.464 -101.375 0 
-178.958 -126.761 0 
-199.909 -109.534 0 
-218.809 -108.884 0 
-186.893 -22.585 0 
-172.209 -136.309 0 
-175.355 -142.052 0 
-222.436 -84.6329 0 
-174.55 -93.013 0 
-198.705 22.9782 0 
-223.105 -127.305 0 
-199.184 -90.0852 0 
-229.493 -116.496 0 
-209.945 -130.252 0 
-168.882 2.21514 0 
-227.145 -113.388 0 
-211.39 -130.552 0 
-197.766 -100.424 0 
-205.634 -133.89 0 
-189.159 -125.654 0 
-142.964 38.1441 0 
-227.681 -137.849 0 
-220.955 -139.067 0 
-221.231 -129.849 0 
-210.888 -87.8819 0 
-174.314 -141.962 0 
-179.044 -75.3497 0 
-206.848 -106.939 0 
-204.287 -113.423 0 
-257.084 -103.504 0 
-192.946 -102.453 0 
-212.401 -128.363 0 
-228.175 -116.528 0 
-185.28 -122.157 0 
-159.709 32.7144 0 
-220.649 -124.717 0 
-213.407 -120.908 0 
-219.651 -120.651 0 
-199.906 -137.022 0 
-195.652 -109.716 0 
-205.477 -118.099 0 
-230.126 -85.7812 0 
-193.031 -78.4827 0 
-227.605 -104.65 0 
-216.153 -102.525 0 
-184.764 -115.995 0 
-190.35 -153.404 0 
-190.035 -97.871 0 
-181.655 -128.535 0 
-219.409 -81.1753 0 
-186.284 -72.4517 0 
-186.122 -139.611 0 
-231.813 -97.7674 0 
-142.505 -126.037 0 
-193.322 -119.55 0 
-191.674 -143.729 0 
-164.72 -72.1619 0 
-170.151 -71.8816 0 
-162.13 -133.306 0 
-146.757 11.6276 0 
-205.764 -116.505 0 
-206.747 -111.723 0 
-241.34 -101.419 0 
-218.094 -228.882 0 
-182.346 -134.624 0 
-194.906 -90.7373 0 
-193.253 -133.15 0 
-224.286 -148.759 0 
-248.406 -97.4861 0 
-145.812 -97.6163 0 
-205.422 -101.435 0 
-179.571 -34.1296 0 
-187.212 -69.95 0 
-230.586 -91.8776 0 
-239.369 -81.4168 0 
-209.223 -54.4965 0 
-211.916 -104.595 0 
-213.917 -67.7255 0 
-226.377 -232.077 0 
-204.5 -117.768 0 
-192.038 -82.7806 0 
-194.133 -119.368 0 
-212.285 -99.3332 0 
-243.553 -128.559 0 
-154.088 -97.5016 0 
-182.35 -100.835 0 
-167.605 -61.2904 0 
-210.444 -68.1982 0 
-188.793 -135.689 0 
-207.428 -93.2097 0 
-177.873 -122.191 0 
-194.344 -58.9226 0 
-220.928 -100.664 0 
-199.403 -91.3605 0 
-218.782 -101.107 0 
-163.491 -114.043 0 
-246.879 -206.109 0 
-190.417 -219.926 0 
-231.982 -73.6602 0 
-185.724 -66.8034 0 
-138.775 -79.1784 0 
-197.752 -74.877 0 
-222.622 -61.9611 0 
-144.35 71.5291 0 
-241.122 -108.212 0 
-181.724 -56.7589 0 
-189.907 -55.2018 0 
-212.518 -36.0023 0 
-197.013 -130.792 0 
-156.281 -79.3637 0 
-168.161 -93.2222 0 
-210.392 -207.279 0 
-190.643 -85.4531 0 
-212.244 -105.441 0 
-179.868 -75.4095 0 
-192.512 -76.9235 0 
-195.802 -37.4081 0 
-167.835 -44.0933 0 
-225.132 -55.2899 0 
-220.75 -90.2954 0 
-187.181 -78.6702 0 
-237.45 -76.9518 0 
-195.617 -77.5185 0 
-185.819 -85.9054 0 
-223.507 -234.761 0 
-214.969 -208.829 0 
-236.276 -50.65 0 
-194.336 -94.5763 0 
-139.443 -51.0066 0 
-143.696 34.5734 0 
-177.418 -71.9728 0 
-225.165 -182.114 0 
-179.171 -61.6884 0 
-193.215 -54.5166 0 
-200.067 -40.5367 0 
-222.293 -84.2044 0 
-187.22 -142.377 0 
-207.715 -175.606 0 
-215.033 -210.53 0 
-195.518 -42.5336 0 
-213.859 -188.356 0 
-162.437 -79.3957 0 
-200.536 -177.18 0 
-234.437 -265.766 0 
-250.343 -56.8494 0 
-159.063 -49.3691 0 
-205.016 -195.951 0 
-176.847 -203.284 0 
-182.716 -70.3282 0 
-201 -209.613 0 
-164.477 -193.609 0 
-218.29 -77.4384 0 
-180.008 -86.5057 0 
-218.858 -228.867 0 
-188.782 -80.3969 0 
-193.976 -200.542 0 
-206.605 -59.2072 0 
-215.525 -98.1931 0 
-188.415 -57.7457 0 
-169.729 -15.0987 0 
-141.453 -205.288 0 
-188.436 -66.8297 0 
-211.843 -51.6991 0 
-149.323 -87.5284 0 
-210.722 -194.267 0 
-203.955 -179.703 0 
-214.243 -184.927 0 
-228.32 -191.41 0 
-199.918 -166.643 0 
-179.085 -188.789 0 
-173.956 -230.023 0 
-215.879 -190.639 0 
-155.415 -58.5054 0 
-184.81 -227.446 0 
-150.067 -42.5911 0 
-162.342 -64.8996 0 
-202.908 -50.145 0 
-223.566 -65.1923 0 
-177.655 -225.723 0 
-205.235 -46.6188 0 
-181.075 -220.931 0 
-169.547 -64.1864 0 
-193.393 -73.7997 0 
-193.016 -211.092 0 
-190.234 -193.018 0 
-169.898 -68.8127 0 
-201.035 -94.5228 0 
-172.874 -30.858 0 
-211.603 -201.833 0 
-192.647 -76.5964 0 
-189.914 -57.6462 0 
-206.274 -79.3601 0 
-236.056 -218.404 0 
-201.479 -77.7348 0 
-205.114 -195.292 0 
-191.34 -209.618 0 
-209.322 -193.85 0 
-223.221 -187.766 0 
-188.446 -213.635 0 
-177.63 -209.148 0 
-192.896 -214.607 0 
-209.079 -9.82853 0 
-150.203 -201.446 0 
-166.759 -204.88 0 
-141.711 -150.13 0 
-161.934 -37.3602 0 
-177.609 -169.012 0 
-211.695 -184.061 0 