<VTKFile type="UnstructuredGrid" version="0.1" byte_order="BigEndian">
  <UnstructuredGrid>
        <Piece NumberOfPoints="8000" NumberOfCells="0" Time= "0.28">      <Points>
        <DataArray name="Position" type="Float32"  NumberOfComponents= "3"  format="ascii">

78.1616 33.8678 0 
80.0561 37.8125 0 
80.3851 2.71042 0 
80.9362 16.4208 0 
81.3862 25.7011 0 
79.0847 35.3867 0 
81.1583 35.3858 0 
80.8637 35.7162 0 
78.8987 37.2933 0 
83.64 1.96563 0 
83.1095 3.03976 0 
82.2199 2.21698 0 
83.2054 7.36592 0 
83.8641 6.8665 0 
84.1027 24.7077 0 
82.0754 26.4864 0 
81.9442 34.5363 0 
83.5319 35.1833 0 
82.468 36.3061 0 
83.1787 38.0531 0 
86.077 1.12982 0 
84.4916 2.00777 0 
85.0294 38.6243 0 
84.2763 4.60081 0 
86.646 4.75841 0 
86.3194 4.48861 0 
85.3928 3.89247 0 
84.6023 6.44574 0 
84.6508 5.99848 0 
85.7932 6.70445 0 
86.3511 8.59567 0 
86.0573 11.0207 0 
86.4585 11.8311 0 
84.8611 16.9006 0 
86.4726 16.8855 0 
84.2021 17.9232 0 
86.306 17.9519 0 
85.7555 21.0391 0 
86.6242 24.0876 0 
86.0605 26.7257 0 
85.6755 25.0047 0 
86.241 28.872 0 
85.39 29.1194 0 
85.9489 28.7166 0 
86.4716 30.0783 0 
85.0266 34.0512 0 
84.6168 31.8469 0 
86.1571 35.275 0 
85.8687 34.6014 0 
85.2442 34.8679 0 
84.1911 34.7481 0 
84.4915 37.8103 0 
84.2987 35.45 0 
85.2794 35.6802 0 
86.4188 35.4639 0 
85.5153 35.6797 0 
84.9023 39.0266 0 
85.5269 37.2865 0 
86.5014 38.7266 0 
86.1332 38.4062 0 
84.1259 38.0661 0 
86.8516 1.01831 0 
88.8879 0.033206 0 
88.1645 0.539103 0 
86.9876 2.01485 0 
88.447 1.92931 0 
86.5322 0.137527 0 
86.7619 1.62787 0 
88.7174 0.643322 0 
87.9988 0.338701 0 
87.1389 0.678742 0 
87.6811 37.6272 0 
87.5146 38.4316 0 
88.9829 0.821315 0 
88.7494 3.5608 0 
89.0621 3.1812 0 
88.3707 4.06139 0 
87.3302 2.92206 0 
88.8642 4.00415 0 
86.7692 4.94608 0 
87.1044 7.04019 0 
88.7351 4.99962 0 
88.059 6.52276 0 
87.9438 6.24699 0 
88.1651 5.23936 0 
88.1686 7.17802 0 
88.4725 7.11187 0 
87.1267 7.71118 0 
88.8777 7.34245 0 
88.6639 8.43688 0 
87.4356 8.6793 0 
88.4425 9.93532 0 
89.1029 10.4531 0 
88.1969 11.669 0 
87.7314 11.0475 0 
88.8707 10.1502 0 
88.9917 11.4422 0 
88.399 11.5335 0 
88.7664 12.3269 0 
88.359 12.9996 0 
88.8048 14.3864 0 
87.6648 12.6808 0 
86.7886 16.0244 0 
87.4987 16.1137 0 
88.2455 15.1478 0 
87.1562 19.4486 0 
88.0347 17.7698 0 
87.5496 21.8189 0 
87.1974 20.57 0 
88.6905 23.4645 0 
88.4231 23.8696 0 
89.1941 25.0663 0 
88.1256 25.364 0 
88.3238 24.3946 0 
87.5859 26.1551 0 
88.4467 25.2936 0 
86.7082 26.7095 0 
88.4465 25.9086 0 
88.6952 27.0018 0 
88.6279 27.7784 0 
89.1095 28.3981 0 
88.869 31.0553 0 
88.5191 29.6401 0 
87.7253 31.5404 0 
88.9166 31.011 0 
87.1965 31.621 0 
87.5005 32.2537 0 
87.5634 29.7581 0 
88.8018 30.1645 0 
88.7774 33.2728 0 
87.5065 33.7434 0 
89.0801 32.8183 0 
88.8248 34.2054 0 
89.0344 33.8241 0 
87.8933 32.0525 0 
87.7415 33.6285 0 
87.1079 34.1379 0 
87.21 35.8215 0 
86.8316 35.9458 0 
89.097 36.0253 0 
88.0846 36.6673 0 
88.925 34.8349 0 
88.7201 36.1687 0 
88.6366 35.882 0 
87.67 37.7617 0 
87.5713 39.2385 0 
88.8655 37.7958 0 
88.832 37.9563 0 
87.96 38.1561 0 
86.8356 39.6954 0 
86.709 37.2771 0 
87.951 37.8582 0 
86.5367 37.9927 0 
88.7145 37.1061 0 
88.3409 37.7594 0 
89.9538 1.47025 0 
91.7529 0.175615 0 
89.5199 0.964418 0 
91.1029 0.521578 0 
89.4613 1.69821 0 
89.578 1.83529 0 
91.8035 1.57944 0 
90.3558 1.77501 0 
90.7911 0.116077 0 
90.8331 0.023867 0 
89.7981 0.0603019 0 
89.2065 1.69068 0 
90.1476 1.39116 0 
90.8704 38.4823 0 
90.8121 0.641799 0 
91.1163 4.16509 0 
89.9459 2.12791 0 
90.412 3.9081 0 
91.1528 2.88827 0 
91.1141 4.07994 0 
90.31 2.36013 0 
89.942 4.30953 0 
91.0033 2.56702 0 
90.6446 4.21567 0 
90.989 3.18652 0 
91.4972 4.17818 0 
89.967 2.6656 0 
89.3897 3.48602 0 
90.4463 6.05128 0 
89.8003 5.88868 0 
91.4204 5.78688 0 
91.2346 6.04011 0 
90.8046 4.72643 0 
91.1388 6.00125 0 
91.6138 5.87809 0 
90.7689 7.63721 0 
91.2519 5.43227 0 
90.0298 6.72851 0 
90.0072 5.88558 0 
90.0111 5.81028 0 
90.8771 5.29013 0 
91.5497 5.88651 0 
90.8345 7.67674 0 
89.9445 7.53965 0 
91.9058 9.86496 0 
91.1235 7.43499 0 
90.4054 8.00104 0 
91.2088 8.36629 0 
90.7647 8.64581 0 
91.3378 8.52642 0 
91.5391 7.68788 0 
89.899 8.43264 0 
89.4923 9.51877 0 
91.2181 9.30063 0 
89.2492 7.94435 0 
89.352 7.53206 0 
90.0498 8.34185 0 
91.0118 7.47921 0 
91.196 7.26429 0 
91.4172 8.11837 0 
90.2216 9.33682 0 
91.0459 7.50082 0 
89.3449 7.48642 0 
90.7482 8.66899 0 
90.2129 9.02759 0 
91.6454 8.95434 0 
89.4095 11.04 0 
91.2803 11.468 0 
91.5323 12.1362 0 
89.2506 10.1855 0 
91.1497 11.7475 0 
90.0584 12.3465 0 
89.5348 11.8191 0 
91.5223 11.0332 0 
90.798 10.6013 0 
90.3787 10.133 0 
91.5946 10.4186 0 
89.9554 11.1851 0 
90.5669 12.0976 0 
90.7425 10.7382 0 
91.4091 13.8781 0 
90.3223 14.0231 0 
91.2863 12.3124 0 
91.5999 13.5057 0 
89.618 13.4957 0 
90.2246 13.5622 0 
90.6265 14.1737 0 
91.4355 15.2041 0 
90.8913 16.4196 0 
91.1174 15.8466 0 
91.0734 16.0951 0 
90.9013 16.888 0 
90.8258 14.9354 0 
90.5054 16.4471 0 
90.6284 15.3846 0 
91.2378 15.8276 0 
90.8395 17.3749 0 
89.2428 15.2595 0 
89.6676 16.6606 0 
90.6719 18.679 0 
91.4343 19.9248 0 
90.7744 17.7122 0 
90.1945 19.2348 0 
89.487 17.3906 0 
89.3676 19.9309 0 
89.791 19.0686 0 
90.038 18.2125 0 
90.6132 19.8138 0 
91.4083 19.9124 0 
91.5708 22.3645 0 
90.6476 21.5149 0 
90.727 22.36 0 
91.8001 24.3423 0 
91.5577 23.8509 0 
89.7777 24.6174 0 
91.058 26.3408 0 
89.691 26.4599 0 
91.3638 25.6336 0 
90.9146 26.4938 0 
91.6812 25.0111 0 
90.6181 26.9877 0 
89.59 26.0512 0 
90.6945 26.7074 0 
90.3612 26.4399 0 
91.414 26.0754 0 
90.3461 25.721 0 
90.5154 26.4365 0 
90.2286 27.0156 0 
91.7666 29.0649 0 
90.0124 29.836 0 
91.029 27.1773 0 
91.0168 27.1742 0 
89.814 28.3611 0 
91.6887 28.5889 0 
90.1956 27.0285 0 
91.4752 28.6822 0 
90.4739 27.1009 0 
89.3585 28.9322 0 
91.7628 28.677 0 
89.6657 29.9552 0 
90.4215 30.9623 0 
88.8521 30.0093 0 
90.8751 30.0195 0 
89.9023 31.3714 0 
89.8021 31.892 0 
90.9497 30.6135 0 
90.3992 31.2375 0 
90.7066 32.2867 0 
89.7386 29.8448 0 
90.1253 31.2785 0 
90.5213 31.7105 0 
91.2784 31.2949 0 
90.2573 29.9996 0 
89.2693 31.361 0 
89.9286 32.5926 0 
91.3753 33.2898 0 
89.5716 33.9944 0 
91.3342 32.8625 0 
89.7456 33.5979 0 
90.1445 33.4822 0 
90.8838 32.0134 0 
90.1978 32.5197 0 
89.9003 33.9188 0 
91.0419 33.5017 0 
90.059 35.0942 0 
90.7522 34.4393 0 
90.0102 32.5116 0 
91.4836 32.6212 0 
91.2804 35.0033 0 
89.9963 36.909 0 
89.6857 35.1242 0 
89.2884 36.5336 0 
90.1834 36.6257 0 
89.5797 36.11 0 
89.6484 34.9526 0 
90.6062 36.2246 0 
90.9586 37.2273 0 
90.4866 36.561 0 
89.4805 35.302 0 
90.3554 35.8128 0 
90.5175 35.2426 0 
91.5076 36.8187 0 
91.4828 35.4202 0 
89.8527 35.7679 0 
91.0966 36.6962 0 
89.1983 37.591 0 
89.5367 37.3933 0 
91.5145 38.2154 0 
90.8573 38.1505 0 
91.4031 37.4343 0 
89.8575 38.2064 0 
90.3683 38.3449 0 
91.3446 37.5004 0 
90.2823 39.711 0 
90.1157 38.0188 0 
92.5758 39.9367 0 
93.0357 0.804984 0 
93.7033 0.816796 0 
93.5636 1.14436 0 
93.2354 0.864038 0 
94.0837 1.64611 0 
93.4657 38.7371 0 
91.7053 0.81624 0 
93.2102 1.65145 0 
93.7582 38.9268 0 
92.4882 0.0741823 0 
93.926 0.515809 0 
93.8873 0.747625 0 
93.4573 0.676273 0 
93.2717 1.39902 0 
93.2101 0.990662 0 
93.8736 0.311656 0 
91.7205 2.03188 0 
93.675 39.0639 0 
93.2392 38.7632 0 
91.6916 38.3357 0 
92.376 1.30152 0 
93.4616 2.36811 0 
92.4398 3.03704 0 
94.0739 3.24077 0 
92.2886 2.64293 0 
94.1782 2.11385 0 
93.6549 3.06921 0 
93.9591 2.64689 0 
93.864 2.7944 0 
92.17 4.57399 0 
92.0421 2.55313 0 
91.698 2.59968 0 
93.9427 3.60359 0 
92.7477 4.51201 0 
94.0334 2.19269 0 
92.2672 3.27875 0 
92.8534 2.77648 0 
93.8332 3.74241 0 
92.0765 4.75464 0 
92.2342 3.80172 0 
92.3889 4.05213 0 
92.2998 2.20571 0 
93.1064 2.25029 0 
93.414 4.30228 0 
92.9912 4.01386 0 
93.2055 6.89199 0 
93.5998 6.77982 0 
93.3131 5.36874 0 
94.0908 5.47764 0 
93.0273 5.75295 0 
93.7909 4.71016 0 
91.6587 6.92489 0 
94.0285 5.40263 0 
92.5527 6.90278 0 
93.5382 6.14864 0 
94.1507 5.97189 0 
93.3352 5.91926 0 
93.6874 5.5891 0 
92.1856 5.19721 0 
92.8058 6.853 0 
94.1629 5.05055 0 
94.2902 4.56513 0 
93.3041 5.99706 0 
92.3247 5.32693 0 
93.2212 5.74999 0 
92.9263 6.36475 0 
94.027 7.20692 0 
94.0025 7.35624 0 
93.5042 8.51814 0 
92.6807 8.78076 0 
94.1753 9.22776 0 
92.5258 8.07484 0 
93.1706 9.5375 0 
92.0798 9.393 0 
91.7208 9.34675 0 
92.6501 7.70571 0 
92.3629 7.96587 0 
91.9273 8.16115 0 
91.9466 8.7571 0 
92.5561 9.04597 0 
92.1123 8.2524 0 
92.1636 8.23131 0 
92.3065 9.24765 0 
94.0813 9.181 0 
91.9158 7.45885 0 
93.2235 7.8723 0 
94.0131 8.64177 0 
93.9951 8.96901 0 
93.6901 9.10798 0 
93.9542 10.8032 0 
92.4334 10.9994 0 
92.0793 9.68177 0 
92.766 11.7551 0 
93.6276 11.5758 0 
93.9907 11.1927 0 
93.0099 9.73267 0 
93.1131 9.84691 0 
93.4054 10.5628 0 
93.1947 10.1703 0 
94.0764 11.8196 0 
93.4272 10.5252 0 
91.8819 10.6691 0 
93.7235 10.0328 0 
93.1337 9.96655 0 
92.5419 9.70865 0 
92.6096 12.1986 0 
94.0328 13.5011 0 
92.5184 13.0469 0 
93.5341 12.9739 0 
93.9406 12.4386 0 
93.6204 12.3299 0 
93.1138 12.8124 0 
92.279 13.4311 0 
93.8638 13.7888 0 
93.1526 14.3646 0 
92.437 12.5128 0 
92.1687 12.4442 0 
92.9942 13.9287 0 
92.4483 14.5292 0 
92.7859 15.6124 0 
93.5626 15.0715 0 
92.8642 15.2473 0 
92.5156 14.8742 0 
92.6496 16.0954 0 
92.9899 15.5052 0 
93.8884 15.8614 0 
93.0632 15.287 0 
92.6735 15.6245 0 
94.1335 15.8885 0 
93.7043 16.0409 0 
93.4375 15.3917 0 
93.6249 16.7498 0 
94.2317 16.6643 0 
92.4048 17.2678 0 
94.1831 16.7982 0 
94.1923 16.1288 0 
92.523 15.4406 0 
92.9769 16.9271 0 
91.7956 16.3444 0 
92.8743 17.0505 0 
92.3663 17.3784 0 
92.4559 15.4193 0 
93.9716 16.6609 0 
93.389 16.6025 0 
92.3965 15.6817 0 
94.0355 15.6743 0 
91.8553 16.2609 0 
91.9735 16.4807 0 
93.1915 16.7573 0 
93.9263 15.8283 0 
92.4792 18.8805 0 
93.829 19.1034 0 
93.7582 17.5706 0 
94.118 19.7066 0 
92.104 18.6636 0 
92.6389 19.5286 0 
93.087 18.1639 0 
92.3745 17.6638 0 
93.9055 19.4588 0 
94.3406 18.587 0 
93.3974 17.7792 0 
94.1418 20.2894 0 
91.9557 20.7219 0 
93.8564 21.5541 0 
91.8792 20.4604 0 
92.6796 21.0727 0 
[...]
      <PointData Vectors="vector">
        <DataArray type="Float32" Name="Velocity" NumberOfComponents="3" format="ascii">

-247.14 -185.82 0 
-231.477 -103.832 0 
-217.524 -134.619 0 
-214.311 -93.945 0 
-204.115 -67.0256 0 
-180.913 -28.5737 0 
-175.947 36.8684 0 
-198.704 -7.20646 0 
-207.393 -117.095 0 
-223.759 -79.384 0 
-179.407 63.5683 0 
-205.57 -119.408 0 
-194.389 -77.0055 0 
-137.823 100.56 0 
-176.036 -65.5429 0 
-176.754 -52.0687 0 
-131.134 115.225 0 
-142.592 98.5415 0 
-167.207 -49.6554 0 
-169.266 -43.0518 0 
-162.097 -24.6507 0 
-175.464 10.8389 0 
-176.28 4.72546 0 
-181.051 -145.382 0 
-204.732 -132.56 0 
-214.266 -124.342 0 
-185.559 -111.835 0 
-175.412 83.0877 0 
-150.491 98.1153 0 
-171.62 -121.545 0 
-182.229 -109.136 0 
-168.298 -74.2943 0 
-170.437 -66.8826 0 
-199.269 -106.985 0 
-162.646 -76.0337 0 
-180.193 -89.7737 0 
-146.041 -86.5785 0 
-194.507 -71.0836 0 
-131.774 107.609 0 
-178.611 -94.0875 0 
-149.226 -55.4636 0 
-170.012 -68.2631 0 
-171.071 -43.1741 0 
-156.88 -56.294 0 
-148.198 -34.783 0 
-134.25 81.1111 0 
-169.915 -38.7864 0 
-185.422 -36.3621 0 
-174.735 -18.1634 0 
-174.116 -14.5928 0 
-197.982 -31.5761 0 
-188.312 -2.62518 0 
-132.086 1.13288 0 
-165.49 -42.2782 0 
-133.069 15.5599 0 
-171.851 18.9009 0 
-133.547 23.6896 0 
-116.794 27.4077 0 
-160.066 -141.536 0 
-181.203 -1.53327 0 
-180.161 39.7003 0 
-150.515 37.8765 0 
-191.828 -141.497 0 
-188.73 -128.027 0 
-213.137 -138.165 0 
-172.49 -130.55 0 
-189.976 -115.845 0 
-178.519 -155.986 0 
-183.893 -144.074 0 
-162.646 -128.122 0 
-152.717 -69.6263 0 
-185.229 -96.5983 0 
-206.121 -131.565 0 
-152.335 -133.958 0 
-191.914 -72.5106 0 
-127.251 78.788 0 
-196.966 -113.418 0 
-147.085 98.4207 0 
-210.617 -122.343 0 
-193.096 -90.2766 0 
-156.844 -79.9555 0 
-159.288 -94.2649 0 
-179.617 -57.8852 0 
-161.853 -70.3519 0 
-179.737 -79.9894 0 
-174.245 -118.463 0 
-145.035 76.635 0 
-154.994 -67.2534 0 
-203.807 -137.237 0 
-183.845 -101.715 0 
-175.522 -110.183 0 
-191.428 -112.106 0 
-109.404 105.132 0 
-202.853 -60.4669 0 
-183.59 -46.8723 0 
-131.471 66.3686 0 
-139.58 -77.4816 0 
-161.096 -83.2289 0 
-166.203 -56.3375 0 
-171.298 -90.3538 0 
-153.384 -70.9874 0 
-214.874 -90.5625 0 
-205.978 -89.0359 0 
-179.26 -90.7622 0 
-164.771 -80.8507 0 
-111.024 96.0597 0 
-177.632 -60.4532 0 
-169.713 -101.332 0 
-172.596 -73.069 0 
-167.65 -63.749 0 
-192.064 -49.8226 0 
-172.869 -68.0888 0 
-172.876 -57.4362 0 
-173.622 -76.0977 0 
-168.834 -71.6764 0 
-209.103 -51.6775 0 
-198.144 -62.2617 0 
-189.097 -41.6741 0 
-208.179 -77.8611 0 
-167.949 -29.4223 0 
-196.728 -68.862 0 
-213.079 -83.0712 0 
-147.168 -49.0343 0 
-183.56 -11.7278 0 
-183.812 -20.6622 0 
-154.382 -58.4765 0 
-183.093 0.418562 0 
-164.328 -37.3919 0 
-157.817 -15.6597 0 
-184.965 -57.8098 0 
-170.696 -8.65817 0 
-169.153 -20.6118 0 
-174.237 -39.6978 0 
-162.034 5.03658 0 
-159.302 3.14875 0 
-164.757 35.027 0 
-139.255 -17.7679 0 
-134.792 4.46985 0 
-148.14 20.3482 0 
-135.075 -147.935 0 
-109.014 50.9288 0 
-147.49 6.73201 0 
-145.786 31.283 0 
-235.578 -145.007 0 
-161.54 -157.268 0 
-205.141 -183.158 0 
-174.715 -151.358 0 
-146.991 42.9729 0 
-108.29 31.7124 0 
-180.232 24.0457 0 
-210.694 -150.566 0 
-223.587 -140.236 0 
-144.848 -147.988 0 
-186.091 -151.072 0 
-156.415 14.9228 0 
-177.8 27.0209 0 
-178.882 -145.1 0 
-168.831 27.7434 0 
-224.784 -122.384 0 
-227.669 -130.747 0 
-115.707 46.5674 0 
-142.936 44.0604 0 
-178.522 58.3408 0 
-168.502 37.866 0 
-128.354 49.673 0 
-176.583 -128.845 0 
-195.885 -142.786 0 
-175.467 -128.786 0 
-234.66 -75.746 0 
-218.779 -91.7742 0 
-218.715 -70.7942 0 
-193.633 -130.448 0 
-143.418 92.795 0 
-128.332 -134.43 0 
-181.015 -84.1833 0 
-171.528 28.3398 0 
-134.208 -127.918 0 
-155.17 -89.7979 0 
-171.017 74.1764 0 
-164.034 -105.15 0 
-212.146 -66.7948 0 
-223.206 -109.814 0 
-228.36 -74.8114 0 
-152.815 -118.511 0 
-178.852 -111.402 0 
-141.777 -105.821 0 
-118.212 39.0611 0 
-194.257 -110.412 0 
-172.545 -130.851 0 
-166.751 -102.428 0 
-167.303 -83.6067 0 
-145.716 78.0957 0 
-248.866 -100.447 0 
-173.221 -113.641 0 
-145.498 72.8241 0 
-186.121 -77.0846 0 
-136.752 66.2337 0 
-172.845 -98.0117 0 
-199.806 -118.489 0 
-161.348 -139.859 0 
-186.373 -92.6412 0 
-133.488 -123.773 0 
-187.595 -69.1631 0 
-164.799 -117.521 0 
-158.374 -86.7043 0 
-133.056 -94.0065 0 
-182.86 -67.1724 0 
-171.859 -142.621 0 
-169.696 -116.508 0 
-153.594 93.4819 0 
-159.956 -151.346 0 
-150.432 -94.7273 0 
-162.56 -96.665 0 
-183.258 -120.771 0 
-180.603 -130.747 0 
-163.565 -104.567 0 
-155.235 -102.487 0 
-170.779 -53.3516 0 
-159.272 -113.537 0 
-178.362 -62.8036 0 
-149.844 -90.7213 0 
-185.026 -106.163 0 
-126.334 101.014 0 
-174.263 -62.287 0 
-163.979 -78.8714 0 
-163.627 -110.174 0 
-168.692 -68.2715 0 
-147.873 -117.698 0 
-99.886 91.5579 0 
-149.974 111.267 0 
-130.267 -63.3662 0 
-167.87 -100.234 0 
-135.069 -66.3268 0 
-163.409 -67.2507 0 
-175.917 -41.8152 0 
-187.155 -82.9653 0 
-183.064 -82.9653 0 
-190.863 -67.6488 0 
-190.611 -101.375 0 
-119.05 100.158 0 
-178.955 -71.2526 0 
-200.664 -49.695 0 
-170.951 -71.4587 0 
-170.859 -46.2984 0 
-133.467 -85.1877 0 
-175.589 -97.1671 0 
-204.993 -68.6002 0 
-142.517 -61.8117 0 
-159.968 -78.445 0 
-152.545 -97.589 0 
-165.385 -76.5568 0 
-198.309 -103.34 0 
-107.682 110.824 0 
-178.85 -70.5789 0 
-152.997 -56.0124 0 
-183.232 -64.6846 0 
-196.476 -55.4321 0 
-209.524 -83.6324 0 
-202.643 -69.7831 0 
-184.343 -89.431 0 
-170.275 -51.174 0 
-170.662 -82.5048 0 
-146.31 138.429 0 
-192.693 -27.1638 0 
-205.085 -107.898 0 
-131.175 -95.0269 0 
-209.931 -96.3461 0 
-203.278 -88.5112 0 
-177.279 -91.3119 0 
-202.514 -70.8993 0 
-129.359 127.308 0 
-178.625 -79.6366 0 
-142.51 -30.941 0 
-185.638 -77.4194 0 
-139.357 -65.5942 0 
-155.319 -59.2395 0 
-180.893 -52.117 0 
-134.29 -77.7528 0 
-164.373 -57.3563 0 
-206.449 -26.4047 0 
-140.651 -14.7663 0 
-149.837 -79.2528 0 
-168.244 -25.1539 0 
-180.387 -68.4186 0 
-185.05 -68.8178 0 
-191.911 -27.3779 0 
-149.124 -49.6886 0 
-188.796 -63.1871 0 
-172.806 -66.1146 0 
-129.638 -39.2087 0 
-158.769 -49.8727 0 
-182.549 -68.8281 0 
-143.681 -70.0622 0 
-133.758 -60.3752 0 
-129.223 -35.9038 0 
-140.567 -45.3962 0 
-153.813 -60.9106 0 
-153.319 -21.5464 0 
-203.587 -30.5853 0 
-196.588 30.1985 0 
-203.199 -2.6641 0 
-170.888 3.84313 0 
-161.31 -8.51918 0 
-174.286 19.3707 0 
-203.223 -37.9646 0 
-191.25 -27.286 0 
-122.557 -16.0896 0 
-153.293 -38.4064 0 
-159.708 -44.9576 0 
-153.444 -29.1034 0 
-190.37 0.859155 0 
-180.516 -43.0426 0 
-195.568 -7.41406 0 
-166.559 -9.16306 0 
-175.64 -6.32579 0 
-152.346 47.612 0 
-154.574 2.86435 0 
-128.153 4.05848 0 
-156.493 4.13264 0 
-115.675 -35.5533 0 
-162.072 15.8734 0 
-165.968 -11.6793 0 
-150.657 -11.4711 0 
-197.995 -4.22345 0 
-149.57 17.9987 0 
-177.591 52.4027 0 
-149.406 27.8486 0 
-129.346 13.0504 0 
-167.594 39.0774 0 
-196.852 -159.408 0 
-103.662 -18.5769 0 
-112.894 17.2023 0 
-196.57 -154.339 0 
-188.08 -141.374 0 
-204.371 -198.714 0 
-220.509 -164.448 0 
-177.143 -169.935 0 
-174.923 -169.382 0 
-132.438 -142.119 0 
-186.072 -161.812 0 
-151.945 28.4687 0 
-163.244 -169.389 0 
-169.378 -155.956 0 
-222.577 -171.589 0 
-122.853 31.967 0 
-148.145 -6.76667 0 
-132.234 -163.884 0 
-166.179 -142.536 0 
-115.655 15.4925 0 
-148.925 -150.971 0 
-181.615 -134.167 0 
-181.972 -145.941 0 
-129.825 -185.809 0 
-170.929 -172.441 0 
-191.337 -192.342 0 
-88.3583 67.0978 0 
-117.297 -156.228 0 
-200.559 -166.884 0 
-167.435 -168.939 0 
-141.929 43.2006 0 
-124.916 57.4703 0 
-159.243 -155.018 0 
-129.232 30.1445 0 
-200.281 -120.547 0 
-205.55 -130.048 0 
-198.412 -123.434 0 
-209.219 -90.1132 0 
-219.505 -110.349 0 
-197.876 -106.086 0 
-217.858 -123.238 0 
-182.785 -136.158 0 
-159.768 32.3767 0 
-157.324 28.8755 0 
-135.011 -126.935 0 
-153.201 -5.23558 0 
-189.828 -156.155 0 
-187.272 -160.801 0 
-173.355 -162.107 0 
-174.6 -142.382 0 
-163.794 -152.784 0 
-138.469 -150.606 0 
-196.729 -89.816 0 
-207.76 -121.634 0 
-199.312 -115.33 0 
-198.559 -105.881 0 
-183.059 -107.794 0 
-217.064 -111.302 0 
-166.17 -136.618 0 
-163.566 45.5015 0 
-183.369 -148.825 0 
-177.39 -134.668 0 
-184.026 -107.297 0 
-154.68 41.3195 0 
-120.885 42.6938 0 
-161.175 -109.718 0 
-163.519 -123.688 0 
-230.359 -154.479 0 
-179.772 -175.341 0 
-183.236 -140.824 0 
-146.147 -141.005 0 
-161.342 -124.126 0 
-196.518 -118.82 0 
-193.527 -113.876 0 
-181.204 -106.888 0 
-200.403 -120.153 0 
-150.018 90.2917 0 
-137.519 -110.638 0 
-189.217 -124.022 0 
-140.44 -125.459 0 
-147.913 -127.519 0 
-150.543 45.3606 0 
-179.318 -112.312 0 
-144.326 31.8229 0 
-139.528 -110.563 0 
-173.849 -80.6703 0 
-146.096 -139.776 0 
-148.538 -86.2185 0 
-151.925 -90.1542 0 
-155.623 -102.973 0 
-175.433 -94.9449 0 
-182.071 -107.439 0 
-143.365 -126.045 0 
-140.3 64.2798 0 
-184.402 -91.5646 0 
-153.425 -95.2097 0 
-206.432 -64.5702 0 
-194.602 -111.037 0 
-188.348 -68.6758 0 
-180.043 -106.077 0 
-187.68 -89.1056 0 
-107.805 78.5319 0 
-148.082 -108.882 0 
-178.77 -121.872 0 
-165.92 -114.295 0 
-157.676 -121.289 0 
-108.76 66.5709 0 
-141.2 -120.635 0 
-151.943 -92.5239 0 
-179.847 -143.599 0 
-155.948 -119.704 0 
-144.142 -56.8796 0 
-166.478 -137.609 0 
-156.72 -66.4271 0 
-139.315 -98.5962 0 
-156.099 -133.485 0 
-128.086 -110.146 0 
-184.995 -92.1039 0 
-168.784 -91.5376 0 
-185.88 -97.3673 0 
-163.113 -98.7996 0 
-149.985 -89.7792 0 
-133.417 -106.306 0 
-179.491 -114.572 0 
-187.288 -101.744 0 
-200.594 -80.1332 0 
-205.834 -77.2383 0 
-195.588 -99.2409 0 
-193.074 -86.0502 0 
-201.458 -82.3831 0 
-127.285 -99.5916 0 
-157.491 -77.7812 0 
-235.371 -124.289 0 
-166.64 -71.3285 0 
-180.71 -75.6068 0 
-129.299 -91.5631 0 
-178.826 -104.853 0 
-181.771 -89.1891 0 
-179.835 -77.5056 0 
-150.867 -69.1737 0 
-179.217 -82.2567 0 
-165.853 -89.3295 0 
-164.776 -118.091 0 
-173.394 -57.21 0 
-136.426 -113.845 0 
-169.312 -70.9717 0 
-146.608 -106.235 0 
-176.854 -100.408 0 
-205.05 -71.6265 0 
-196.183 -77.9102 0 
-195.417 -38.5668 0 
-114.143 -72.2208 0 
-126.764 -72.592 0 
-181.03 -71.0725 0 
-139.391 -71.0863 0 
-133.446 -91.0892 0 
-159.334 -77.1971 0 
-166.66 -101.755 0 
-135.192 -76.7456 0 
-150.195 -59.4467 0 
-124.526 -67.9652 0 
-138.2 118.73 0 
-159.175 -95.7604 0 
-170.54 -100.716 0 
-202.406 -78.9212 0 
-156.387 -72.7727 0 
-124.44 -97.8057 0 
-154.685 -85.2077 0 
-142.47 125.486 0 
-132.571 -97.3066 0 
-182.287 -86.5716 0 
-114.789 -100.605 0 
-132.423 -87.3634 0 
-169.747 -69.1472 0 
-168.152 -36.5569 0 
-145.631 -56.8298 0 
-134.855 -34.904 0 
-147.069 -99.7312 0 
-166.54 -39.4435 0 
-153.308 -63.1523 0 
-167.69 -83.566 0 
-159.235 -70.7356 0 
-187.603 -59.5807 0 
-153.818 -89.1829 0 
-151.382 -45.0295 0 
-155.189 -66.1731 0 
-153.245 -44.1823 0 
-161.78 -59.9158 0 
-126.654 113.561 0 
-152.772 -29.5818 0 
-124.326 -43.1958 0 
-171.015 -72.1616 0 
-151.824 -74.9631 0 
-150.221 -80.2924 0 
-149.573 -90.0344 0 
-150.878 -56.4247 0 
-168.246 -61.1801 0 
-188.238 3.64096 0 
-176.048 33.7812 0 
-147.131 -46.7194 0 
-186.761 -69.334 0 
-172.429 -45.0382 0 
-134.027 -47.3686 0 
-175.706 -62.0557 0 
-127.438 -61.6374 0 
-138.148 -39.3843 0 
-174.38 -22.7417 0 
-159.404 -36.3184 0 
-164.205 -25.6921 0 
-143.945 -87.2215 0 
-173.135 -41.0369 0 
-166.361 -43.0711 0 
-172.904 -52.3405 0 
-160.064 -76.9862 0 
-148.766 -34.7797 0 
-172.861 -51.0157 0 
-153.756 -3.64836 0 
-154.624 -25.7118 0 
-177.568 -56.7836 0 
-205.196 -35.6192 0 
-220.392 -51.9549 0 
-179.255 -8.15529 0 
-128.432 -49.0422 0 
-114.124 -23.1446 0 
-165.085 -67.7455 0 
-169.763 -70.5981 0 
-176.467 -36.7148 0 
-188.684 -54.0271 0 
-145.059 -50.9385 0 
-148.384 -35.098 0 
-193.834 1.62242 0 
-190.713 -8.44923 0 
-139.191 -44.5105 0 
-185.019 -43.9359 0 
-145.756 -14.5376 0 
-168.524 -1.61812 0 
-143.307 -52.3081 0 
-190.278 -20.6476 0 
-173.958 -46.0051 0 
-154.644 13.3194 0 
-159.786 1.0612 0 
-157.099 -14.3073 0 
-189.415 -22.5707 0 
-146.93 -4.23697 0 
-151.055 34.6525 0 
-144.598 -57.0696 0 
-147.431 13.4514 0 
-182.309 -15.7061 0 
-185.072 -32.8308 0 
-175.782 -53.2169 0 
-147.321 -6.46746 0 
-163.176 -2.56202 0 
-143.126 -15.746 0 
-180.932 2.50308 0 
-152.976 -18.5225 0 
-174.052 11.1028 0 
-163.519 -2.15171 0 
-188.008 5.2035 0 
-173.768 -11.1071 0 
-155.426 -2.85237 0 
-162.941 12.1451 0 
-158.625 -41.7408 0 
-162.763 -8.3698 0 
-149.793 -11.8057 0 
-164.357 17.9831 0 
-156.143 -45.359 0 
-134.131 -0.218939 0 
-145.108 24.0522 0 
-161.246 40.4299 0 
-111.383 -16.6369 0 
-209.503 -24.445 0 
-195.222 15.3721 0 
-154.207 -5.56108 0 
-109.514 -2.60379 0 
-98.5146 0.488797 0 
-145.109 -12.7407 0 
-133.238 47.7146 0 
-132.651 26.5812 0 
-103.907 20.5583 0 
-107.655 -16.1774 0 
-189.763 -134.649 0 
-176.109 -179.106 0 
-114.715 -179.343 0 
-132.154 -175.369 0 
-171.341 18.8981 0 
-182.805 -193.136 0 
-154.821 -8.14656 0 
-105.16 24.0016 0 
-202.934 -158.589 0 
-179.803 -146.882 0 
-199.327 -148.225 0 
-207.859 -124.036 0 
-210.379 -160.469 0 
-156.885 -118.879 0 
-154.089 -5.92281 0 
-171.279 -171.505 0 
-186.631 -214.237 0 
-143.812 -4.6116 0 
-158.969 -168.693 0 
-114.935 32.7516 0 
-125.35 -209.031 0 
-124.882 -169.977 0 
-185.633 -151.522 0 
-178.632 -142.568 0 
-187.175 -175.72 0 
-177.272 -140.895 0 
-94.9707 31.5678 0 
-133.623 -180.869 0 
-133.201 -162.386 0 
-117.235 14.6662 0 
-154.132 -146.85 0 
-152.389 -196.936 0 
-156.267 -167.449 0 
-145.469 43.9221 0 
-127.62 28.8476 0 
-148.698 -154.12 0 
-143.523 -159.836 0 
-151.388 -175.13 0 
-126.144 -176.068 0 
-177.854 -165.442 0 
-156.498 -175.462 0 
-152.774 -124.923 0 
-160.372 -121.747 0 
-181.463 -148.91 0 
-176.41 -127.483 0 
-199.606 -144.423 0 
-198.431 -130.234 0 
-190.811 -151.838 0 
-210.154 -121.915 0 
-147 -163.248 0 
-172.819 -135.269 0 
-156.822 -169.669 0 
-124.56 -135.018 0 
-180.89 -147.05 0 
-130.063 -5.59776 0 
-168.77 -173.206 0 
-128.91 -126.139 0 
-146.478 -155.148 0 
-140.407 -143.294 0 
-137.9 -168.277 0 
-162.952 -121.761 0 
-140.383 -175.427 0 
-166.551 -117.624 0 
-172.629 -162.511 0 
-168.76 -136.949 0 
-155.073 -155.966 0 
-123.802 12.2231 0 
-170.015 -152.323 0 
-126.07 20.2992 0 
-156.092 -158.942 0 
-164.739 -126.934 0 
-136.333 -165.48 0 
-204.275 -95.4879 0 
-195.607 -121.244 0 
-167.044 -80.5274 0 
-167.31 -103.738 0 
-206.069 -110.799 0 
-201.78 -120.747 0 
-212.91 -136.228 0 
-179.525 -101.398 0 
-180.451 -98.9641 0 
-200.874 -120.251 0 
-186.442 -137.646 0 
-208.702 -99.2602 0 
-163.347 -144.164 0 
-152.108 -140.179 0 
-123.984 48.475 0 
-180.411 -122.966 0 
-101.577 50.1925 0 
-190.813 -129.722 0 
-152.849 -127.596 0 
-174.677 -151.996 0 
-133.582 15.9432 0 
-156.791 -98.9712 0 
-163.956 -160.491 0 
-137.129 -133.141 0 
-125.503 -102.332 0 
-155.101 -146.728 0 
-167.296 -132.456 0 
-135.229 21.2844 0 
-156.779 -141.749 0 
-187.138 -149.976 0 
-195.821 -154.259 0 
-153.996 -132.058 0 
-184.829 -80.9621 0 
-195.382 -108.92 0 
-180.94 -123.891 0 
-204.778 -123.5 0 
-164.42 -74.2361 0 
-211.223 -92.7418 0 
-201.48 -123.79 0 
-137.489 -83.1559 0 
-156.41 -128.174 0 
-191.125 -93.3622 0 
-129.03 -109.917 0 
-134.296 59.07 0 
-191.48 -131.724 0 
-170.602 -83.8184 0 
-139.35 -130.254 0 
-163.481 -83.62 0 
-165.86 -120.671 0 
-148.613 -110.101 0 
-134.68 -115.413 0 
-154.629 -158.598 0 
-179.093 -107.357 0 
-173.02 -121.507 0 
-184.32 -140.999 0 
-157.941 -129.019 0 
-188.982 -143.157 0 
-150.391 -108.103 0 
-140.681 -113.069 0 
-135.957 -91.2374 0 
-193.441 -113.065 0 
-174.167 -100.537 0 
-105.205 -130.429 0 
-188.261 -119.808 0 
-208.474 -115.356 0 
-144.126 -108.29 0 
-176.972 -104.167 0 
-185.635 -140.508 0 
-157.092 -158.857 0 
-173.643 -112.823 0 
-190.762 -77.4885 0 
-210.408 -71.1318 0 
-177.909 -93.1782 0 
-197.842 -88.1755 0 
-140.307 -97.768 0 
-110.336 62.3915 0 
-136.81 -123.738 0 
-176.182 -103.751 0 
-182.324 -120.388 0 
-175.995 -76.8816 0 
-165.197 -105.353 0 
-177.453 -93.0459 0 
-198.064 -127.963 0 
-184.052 -108.707 0 
-169.818 -89.8424 0 
-183.265 -83.6512 0 
-183.045 -105.86 0 
-157.739 -129.014 0 
-179.948 -75.6691 0 
-181.115 -97.0574 0 
-185.528 -68.1856 0 
-172.959 -84.7439 0 
-163.477 -110.619 0 
-183.399 -100.703 0 
-171.433 -102.144 0 
-175.644 -141.1 0 
-152.981 -146.917 0 
-175.506 -78.8314 0 
-150.412 -153.961 0 
-182.179 -117.087 0 
-164.415 -126.982 0 
-173.336 -135.674 0 
-131.367 -129.547 0 
-175.785 -116.287 0 
-170.541 -90.3906 0 
-133.079 -119.568 0 
-133.453 -112.382 0 
-171.642 -138.23 0 
-189.081 -140.593 0 
-194.844 -127.22 0 
-144.273 -86.929 0 
-174.081 -128.702 0 
-154.126 -109.799 0 
-187.626 -130.223 0 
-167.88 -82.6701 0 
-171.797 -144.156 0 
-150.818 -119.88 0 
-152.301 -102.804 0 
-152.405 -52.0136 0 
-156.802 -98.2752 0 
-176.053 -91.8005 0 
-157.18 -115.542 0 
-108.245 -86.7633 0 
-185.813 -80.5968 0 
-169.691 -97.4756 0 
-157.298 -127.106 0 
-169.08 -124.082 0 
-104.225 -107.202 0 
-179.869 -105.408 0 
-170.441 -90.6236 0 
-181.165 -75.5505 0 
-192.019 -84.1089 0 
-124.327 -68.4118 0 
-189.139 -120.883 0 
-142.012 -69.7496 0 
-165.122 -76.6423 0 
-134.128 -62.7851 0 
-139.211 -92.8155 0 
-131.192 -121.955 0 
-132.435 -111.148 0 
-110.275 -106.927 0 
-155.437 -75.4025 0 
-174.983 -104.528 0 
-146.976 -76.7932 0 
-125.82 -92.9379 0 
-150.569 -103.108 0 
-161.321 -111.348 0 
-146.028 -97.0716 0 
-139.235 -97.159 0 
-128.66 -93.4273 0 
-159.627 80.6946 0 
-172.242 -93.1735 0 
-147.011 -97.0623 0 
-174 -100.496 0 
-136.871 -106.984 0 
-164.476 -90.1857 0 
-141.551 -132.329 0 
-192.448 -118.179 0 
-166.379 -105.548 0 
-179.167 -83.1483 0 
-152.086 -61.0025 0 
-138.314 -88.6781 0 
-159.376 -84.0244 0 
-153.929 -95.9225 0 
-148.31 -59.8766 0 
-162.473 -107.079 0 
-101.295 104.339 0 
-170.836 -106.269 0 
-192.983 -79.2982 0 
-177.162 -74.9129 0 
-167.902 -119.723 0 
-211.807 -89.8933 0 
-150.169 -98.8331 0 
-175.686 -91.7939 0 
-191.813 -71.5615 0 
-187.903 -85.4528 0 
-164.548 -80.6673 0 
-137.941 -82.6709 0 
-188.652 -89.906 0 
-103.702 -103.969 0 
-153.038 -85.4718 0 
-177.134 -49.985 0 
-182.694 -91.4066 0 
-124.517 114.845 0 
-159.223 -98.6002 0 
-152.666 -99.9195 0 
-122.04 -89.2823 0 
-148.073 -80.4462 0 
-120.105 -114.557 0 
-176.764 -54.5995 0 
-146.82 -102.366 0 
-123.982 -108.061 0 
-161.54 -116.693 0 
-137.481 74.3093 0 
-145.706 -73.4894 0 
-131.303 -79.5372 0 
-191.911 -88.2734 0 
-152.517 -97.7493 0 
-120.516 -99.3679 0 
-194.097 -71.0673 0 
-157.113 -82.039 0 
-129.37 -114.419 0 
-190.974 -65.4791 0 
-176.842 -87.2717 0 
-159.458 -69.754 0 
-130.625 -112.303 0 
-114.263 -100.334 0 
-141.557 -115.171 0 
-126.312 -93.7051 0 
-169.012 -66.6222 0 
-151.498 -80.917 0 
-191.929 -101.3 0 
-118.421 -96.5866 0 
-147.062 -95.0266 0 
-160.746 -38.641 0 
-120.13 -87.4012 0 
-138.317 -93.2363 0 
-120.999 -105.426 0 
-190.322 -71.7004 0 
-160.216 -76.7112 0 
-185.372 -65.4725 0 
-155.302 -78.9718 0 
-126.316 -92.3385 0 
-151.074 -81.933 0 
-138.642 -96.7865 0 
-189.27 -70.045 0 
-145.664 -100.547 0 
-151.744 -76.8762 0 
-176.535 -101.04 0 
-146.754 -88.0598 0 
-153.243 -92.2575 0 
-182.676 -100.772 0 
-190.716 -60.8766 0 
-186.419 -58.5756 0 
-166.035 -55.7499 0 
-137.589 -60.9926 0 
-107.851 -96.5155 0 
-185.204 -89.27 0 
-110.042 -60.4713 0 
-125.083 -56.9316 0 
-187.557 -70.1525 0 
-102.348 -56.923 0 
-176.316 -68.3368 0 
-204.44 -71.6364 0 
-155.459 -69.9623 0 
-184.41 -88.2227 0 
-165.322 -59.416 0 
-170.619 -89.957 0 
-124.674 -64.6423 0 
-150.203 -53.611 0 
-171.502 -27.2545 0 
-173.492 -29.4094 0 
-196.312 -86.5272 0 
-115.561 -86.0981 0 
-141.74 -67.7943 0 
-141.197 -29.5926 0 
-137.145 -59.0662 0 
-107.834 97.9691 0 
-152.597 -66.2053 0 
-158.209 -50.643 0 
-153.956 -13.2921 0 
-141.653 -37.7044 0 
-204.944 -44.5585 0 
-161.224 -90.0206 0 
-182.261 -63.9447 0 
-185.952 -69.3103 0 
-197.643 -66.5819 0 
-210.99 -74.2875 0 
-159.261 -54.9314 0 
-137.033 -91.6502 0 
-100.08 -37.3526 0 
-133.809 -60.3736 0 
-157.84 -51.9279 0 
-162.001 -15.7019 0 
-123.734 -38.7089 0 
-183.222 23.5101 0 
-128.753 -74.6487 0 
-159.965 -71.9565 0 
-155.281 -66.0034 0 
-138.019 -14.4328 0 
-135.736 -63.8049 0 
-175.892 -62.2355 0 