<VTKFile type="UnstructuredGrid" version="0.1" byte_order="BigEndian">
  <UnstructuredGrid>
        <Piece NumberOfPoints="8000" NumberOfCells="0" Time= "0.005">      <Points>
        <DataArray name="Position" type="Float32"  NumberOfComponents= "3"  format="ascii">

116.39 16.0917 0 
115.363 16.4921 0 
117.03 17.487 0 
115.164 15.0906 0 
116.272 16.2851 0 
116.484 15.7798 0 
115.756 15.7838 0 
116.653 15.3015 0 
117.125 16.0084 0 
116.309 16.5255 0 
115.131 15.7075 0 
116.413 16.6056 0 
116.447 15.6694 0 
115.668 16.2425 0 
117.307 17.2908 0 
115.26 15.908 0 
115.961 15.2164 0 
115.453 16.2574 0 
116.225 15.1096 0 
115.61 15.9533 0 
115.682 17.3335 0 
115.629 16.0852 0 
116.074 15.8312 0 
116.961 15.4208 0 
115.829 17.2156 0 
115.758 15.4596 0 
116.424 15.2441 0 
117.094 17.4722 0 
115.334 15.0468 0 
115.492 17.4387 0 
116.639 15.9282 0 
115.745 16.6181 0 
116.152 15.5451 0 
117.25 15.6533 0 
115.955 16.8788 0 
116.558 15.1286 0 
117.411 16.7943 0 
116.569 16.4716 0 
116.488 17.4661 0 
116.903 16.0524 0 
115.661 16.3242 0 
115.8 15.5566 0 
116.484 16.7025 0 
115.472 16.0921 0 
117.425 15.5118 0 
116.497 16.8768 0 
115.648 16.5212 0 
117.478 17.0328 0 
116.11 15.7717 0 
116.07 16.231 0 
115.022 16.1919 0 
115.401 15.1309 0 
115.232 17.2441 0 
116.9 17.192 0 
116.773 15.6911 0 
116.751 15.8879 0 
115.502 16.6691 0 
115.875 16.8578 0 
116.662 16.7939 0 
116.816 15.8845 0 
115.669 16.8513 0 
115.484 16.3458 0 
115.775 15.5068 0 
117.179 15.7732 0 
115.8 15.6166 0 
117.179 17.0148 0 
116.643 16.544 0 
117.08 16.2999 0 
116.447 15.9733 0 
116.891 15.6917 0 
117.065 16.5242 0 
116.909 16.2586 0 
116.935 16.5396 0 
116.322 15.1958 0 
115.999 15.9178 0 
116.068 16.8927 0 
117.358 16.6345 0 
115.38 16.4753 0 
116.27 15.2822 0 
115.873 16.4672 0 
115.323 16.0921 0 
115.469 16.4162 0 
116.382 16.42 0 
117.368 16.6595 0 
115.002 16.9181 0 
116.377 16.8075 0 
117.029 16.2675 0 
116.401 17.485 0 
115.421 16.6827 0 
116.607 16.2093 0 
115.901 16.0159 0 
115.455 15.2544 0 
116.417 16.2064 0 
115.94 16.4508 0 
115.386 17.1877 0 
116.35 15.4833 0 
116.488 15.6907 0 
115.175 15.5024 0 
116.759 16.2073 0 
115.479 16.0905 0 
116.513 17.2172 0 
116.808 17.0189 0 
115.847 15.4191 0 
115.261 16.0694 0 
115.116 15.4401 0 
116.264 17.0181 0 
115.386 17.4601 0 
115.489 15.5302 0 
115.445 16.4588 0 
116.363 16.0756 0 
116.244 16.01 0 
116.413 15.8773 0 
116.386 16.916 0 
115.232 17.2719 0 
116.722 16.6078 0 
116.165 15.2901 0 
115.725 17.3561 0 
116.942 15.6299 0 
115.776 17.2238 0 
115.107 15.7014 0 
117.145 15.7143 0 
115.554 16.219 0 
116.707 16.8292 0 
117.185 15.156 0 
117.336 17.3092 0 
115.614 16.9953 0 
116.303 17.3554 0 
115.46 17.3001 0 
116.964 16.5572 0 
115.991 15.4004 0 
115.455 16.0075 0 
115.807 17.323 0 
116.823 16.8236 0 
116.352 15.7182 0 
115.513 15.0564 0 
116.164 17.2891 0 
116.423 15.127 0 
115.195 16.3913 0 
115.778 15.3831 0 
116.737 16.9861 0 
116.165 16.983 0 
116.411 16.2337 0 
116.494 15.9245 0 
116.287 16.8613 0 
116.144 17.2075 0 
117.14 16.0667 0 
115.774 16.2451 0 
116.533 17.1797 0 
116.293 15.2903 0 
117.335 16.9296 0 
116.782 15.1828 0 
116.614 15.5272 0 
116.994 15.7939 0 
115.999 15.118 0 
116.574 17.4574 0 
115.397 15.3654 0 
116.67 17.3954 0 
116.128 15.2678 0 
115.606 15.4097 0 
117.269 16.3515 0 
116.961 17.4284 0 
116.307 15.1653 0 
115.857 16.467 0 
115.997 16.0173 0 
116.461 15.0608 0 
115.768 15.8181 0 
117.316 16.3043 0 
117.449 17.2089 0 
116.721 17.1315 0 
116.871 16.2481 0 
115.109 15.4764 0 
115.927 15.1343 0 
115.975 17.3492 0 
117.13 15.5439 0 
116.179 15.2283 0 
116.083 15.0871 0 
116.988 17.3928 0 
116.463 16.6999 0 
116.34 15.878 0 
117.125 15.8384 0 
115.468 17.0539 0 
116.434 16.995 0 
115.184 16.6685 0 
115.722 15.2917 0 
116.384 15.2455 0 
116.425 16.6574 0 
115.715 17.2346 0 
116.372 16.0637 0 
115.257 16.9387 0 
116.255 15.9012 0 
115.114 15.4188 0 
115.439 15.2731 0 
116.548 15.1544 0 
115.73 16.1557 0 
116.42 15.4721 0 
117.413 15.8668 0 
117.011 15.236 0 
116.56 17.3767 0 
116.509 17.3532 0 
116.765 16.7717 0 
117.219 15.4793 0 
116.353 15.2783 0 
115.985 15.9868 0 
115.989 15.6073 0 
115.871 16.9051 0 
117.058 15.9359 0 
115.412 16.8369 0 
115.12 17.0162 0 
116.923 16.423 0 
115.122 15.6319 0 
115.984 16.2972 0 
116.24 16.8924 0 
117.179 17.218 0 
117.133 17.0009 0 
116.438 16.5613 0 
115.527 15.3282 0 
116.681 15.5563 0 
115.133 15.4685 0 
115.062 16.5561 0 
117.08 16.1511 0 
116.58 15.1231 0 
116.86 16.4638 0 
117.468 15.8593 0 
116.408 15.1608 0 
115.611 15.53 0 
116.173 16.6402 0 
117.237 15.8374 0 
116.585 16.7783 0 
117.224 17.0292 0 
115.291 15.8414 0 
115.719 17.0447 0 
116.122 16.373 0 
117.233 16.343 0 
115.526 15.1877 0 
114.989 15.0702 0 
117.486 16.6442 0 
116.908 17.1282 0 
116.822 17.4415 0 
117.4 17.3239 0 
117.223 15.9631 0 
116.44 16.0673 0 
116.089 15.2408 0 
116.277 15.4966 0 
116.62 16.6691 0 
116.401 17.3673 0 
116.247 15.7716 0 
116.782 16.1678 0 
117.016 15.9008 0 
115.318 15.987 0 
115.089 16.8402 0 
116.945 15.3645 0 
115.562 16.1308 0 
117.042 15.1483 0 
116.513 17.0458 0 
117.198 17.0221 0 
116.884 16.3631 0 
115.188 15.9939 0 
117.192 15.6576 0 
116.986 16.4462 0 
115.513 16.9612 0 
115.387 16.9074 0 
115.257 15.2147 0 
116.307 15.9597 0 
115.13 15.9139 0 
115.3 15.5204 0 
115.044 16.5757 0 
115.485 15.6185 0 
117.373 15.4459 0 
116.946 16.5733 0 
116.418 15.2057 0 
117.079 17.4288 0 
116.402 16.8749 0 
115.429 16.3123 0 
116.451 17.3635 0 
116.636 15.355 0 
117.186 16.0517 0 
116.865 17.1092 0 
115.182 15.4195 0 
115.892 17.3781 0 
116.987 15.317 0 
115.717 16.6025 0 
115.767 15.7085 0 
117.175 16.054 0 
116.449 17.4829 0 
115.178 15.0994 0 
115.87 16.2437 0 
115.573 16.7239 0 
116.735 15.1149 0 
115.026 16.6262 0 
116.716 17.11 0 
115.155 16.7567 0 
116.647 16.9654 0 
116.971 15.3134 0 
116.792 15.2856 0 
117.265 16.0898 0 
116.862 16.1437 0 
115.838 15.0813 0 
115.566 15.0602 0 
115.643 16.4078 0 
116.001 15.2443 0 
115.863 15.7573 0 
117.328 16.3708 0 
116.905 15.9752 0 
116.614 15.9299 0 
115.092 16.615 0 
116.829 16.4401 0 
117.446 16.484 0 
116.142 16.2577 0 
116.278 17.0354 0 
115.241 15.316 0 
117.204 16.3252 0 
115.957 17.0481 0 
115.705 16.1194 0 
117.087 17.4312 0 
117.428 16.5346 0 
115.403 16.5351 0 
115.115 17.2753 0 
116.408 17.0811 0 
116.968 15.3587 0 
115.736 16.329 0 
116.963 15.477 0 
115.257 15.6422 0 
115.877 15.9977 0 
117.098 15.6449 0 
116.804 17.0473 0 
115.349 17.4031 0 
115.894 16.702 0 
116.689 15.6752 0 
115.024 17.0931 0 
117.144 16.2972 0 
116.666 17.0656 0 
116.263 16.0986 0 
115.054 15.917 0 
117.266 15.207 0 
116.544 15.1265 0 
115.832 17.1427 0 
117.084 17.1893 0 
115.983 15.1362 0 
115.561 16.9946 0 
116.763 16.8464 0 
115.272 15.1653 0 
115.646 15.5008 0 
115.043 15.3165 0 
116.438 15.799 0 
115.303 17.4324 0 
116.355 16.2272 0 
117.349 15.1419 0 
115.936 15.4132 0 
115.612 15.0904 0 
116.646 16.9386 0 
116.474 15.5199 0 
116.002 16.7084 0 
116.387 15.252 0 
115.262 15.8103 0 
116.489 16.744 0 
115.881 16.8349 0 
115.438 16.0178 0 
116.906 16.4217 0 
115.438 16.5694 0 
115.332 17.2414 0 
116.822 15.3893 0 
116.089 16.8263 0 
115.343 16.8075 0 
117.316 16.4011 0 
116.584 16.4989 0 
117.231 15.3167 0 
116.245 15.5017 0 
117.463 15.9833 0 
115.576 16.6645 0 
115.24 16.4013 0 
117.402 16.1674 0 
115.143 15.1989 0 
115.51 16.735 0 
115.691 16.2033 0 
115.77 15.2667 0 
116.189 15.4357 0 
116.816 15.6192 0 
116.656 16.4692 0 
115.959 15.72 0 
116.271 16.6954 0 
116.431 16.0702 0 
115.261 16.7618 0 
116.931 15.6318 0 
115.685 17.3831 0 
116.417 15.8963 0 
116.335 15.6656 0 
115.849 16.9344 0 
115.84 15.5514 0 
116.698 15.3331 0 
116.905 15.4495 0 
116.075 16.7473 0 
116.435 16.1364 0 
117.252 15.32 0 
115.42 16.8757 0 
116.889 15.7465 0 
115.014 17.3033 0 
116.534 15.4472 0 
116.602 15.3069 0 
116.397 15.6841 0 
115.641 15.0681 0 
117.162 17.4605 0 
116.552 15.4539 0 
117.026 16.1916 0 
117.032 15.5603 0 
116.024 15.3182 0 
117.033 15.0162 0 
115.59 15.4549 0 
117.011 16.8171 0 
115.84 15.0946 0 
115.412 16.8223 0 
115.116 16.6872 0 
116.316 15.9698 0 
115.858 16.8726 0 
117.138 15.5806 0 
116.738 16.0838 0 
115.995 15.7772 0 
115.068 15.5558 0 
116.832 15.8548 0 
115.954 16.7879 0 
116.945 16.143 0 
116.06 16.0308 0 
117.129 16.5559 0 
116.338 16.5175 0 
115.12 16.5275 0 
116.927 16.3166 0 
115.489 16.2825 0 
115.348 16.0897 0 
115.863 15.3417 0 
116.321 16.5359 0 
115.939 15.3999 0 
117.319 16.5322 0 
117.255 15.8697 0 
117.091 16.2979 0 
116.111 16.2299 0 
116.809 16.9297 0 
116.201 15.1791 0 
116.326 16.1868 0 
116.891 16.0275 0 
116.256 17.4024 0 
116.954 17.2502 0 
115.559 17.1807 0 
116.061 17.2961 0 
116.815 16.6054 0 
116.624 16.4787 0 
115.521 15.1337 0 
115.994 15.7694 0 
117.089 15.4694 0 
115.283 16.7553 0 
115.832 16.1246 0 
116.684 17.459 0 
115.4 15.3983 0 
116.452 15.8942 0 
115.223 15.5137 0 
115.869 16.0713 0 
116.751 16.9107 0 
116.666 15.9274 0 
116.937 17.1696 0 
117.371 15.1894 0 
116.184 15.4394 0 
115.769 15.8401 0 
116.246 16.6958 0 
115.604 16.6102 0 
115.313 15.0633 0 
115.868 15.7787 0 
115.635 16.6944 0 
115.686 16.1929 0 
116.738 15.3945 0 
115.568 15.2998 0 
117.059 16.1955 0 
115.9 15.0044 0 
116.327 16.2245 0 
116.718 16.8343 0 
117.001 16.0345 0 
117.016 15.767 0 
115.05 17.2978 0 
117.022 17.4479 0 
117.186 17.1893 0 
115.148 16.3804 0 
117.156 16.319 0 
116.851 17.4404 0 
116.908 17.3147 0 
116.167 18.2454 0 
115.303 17.56 0 
115.846 18.9308 0 
115.525 18.1712 0 
116.578 18.3811 0 
115.819 18.9904 0 
115.716 17.6921 0 
116.188 18.7571 0 
115.818 17.6212 0 
115.842 18.3743 0 
116.691 17.9103 0 
115.082 17.969 0 
116.142 17.5828 0 
117.398 18.7854 0 
116.374 18.4313 0 
116.643 18.9815 0 
115.122 17.9295 0 
115.429 18.7366 0 
116.734 17.8883 0 
116.863 18.4792 0 
115.185 18.5147 0 
115.474 17.6593 0 
115.985 18.6622 0 
115.844 17.5193 0 
115.483 18.1779 0 
115.842 17.8364 0 
115.425 18.5131 0 
115.276 18.3638 0 
116.942 17.7115 0 
116.546 18.897 0 
116.195 17.682 0 
116.459 17.511 0 
115.708 18.5568 0 
117.256 18.1937 0 
117.486 17.9693 0 
116.415 18.2857 0 
115.22 18.1238 0 
[...]
      <PointData Vectors="vector">
        <DataArray type="Float32" Name="Velocity" NumberOfComponents="3" format="ascii">

-4.99669 -4.5955 0 
-4.99995 -1.31114 0 
-4.99996 4.99999 0 
-4.99998 -4.99999 0 
-4.13173 -4.99581 0 
4.98883 4.65391 0 
-5 -5 0 
-4.9979 5 0 
-4.47095 4.96484 0 
-4.84027 -2.08292 0 
5 -4.99751 0 
-4.94296 -4.1631 0 
-4.96344 -4.97794 0 
-4.3824 3.97438 0 
-4.9998 -4.99991 0 
-3.84259 -4.9897 0 
-4.27821 -4.92483 0 
5 -4.99708 0 
-5 -5 0 
5 -4.99978 0 
4.99614 4.96715 0 
5 -4.99901 0 
4.83954 4.87045 0 
5 -4.99865 0 
5 -4.99986 0 
5 -4.9982 0 
-4.89796 -4.88714 0 
-4.99876 -4.8424 0 
5 -4.99979 0 
-4.95589 3.66149 0 
-4.98895 -4.98232 0 
-5 -5 0 
-4.99816 5 0 
5 -4.99993 0 
-4.95516 -4.04117 0 
4.99103 -4.97301 0 
-4.9816 -4.97228 0 
-4.98994 5 0 
4.97211 -4.94698 0 
-4.94999 -4.72705 0 
-4.99353 -4.979 0 
-4.76329 2.17934 0 
4.95614 -4.95598 0 
-4.97924 4.28369 0 
4.98711 -4.28184 0 
-4.81857 -4.99778 0 
-2.16029 -4.97889 0 
5 -4.99919 0 
-4.98549 5 0 
0.417357 -4.98784 0 
4.99582 4.6877 0 
-4.98703 -5 0 
-4.97676 -4.95527 0 
-2.31957 0.640166 0 
-4.9997 -4.99989 0 
-4.9968 5 0 
-4.99997 -4.99998 0 
-4.98231 -4.97694 0 
-4.93248 4.70675 0 
-4.92716 4.51276 0 
4.82112 -4.95301 0 
4.97543 -4.94751 0 
-4.96605 -4.36785 0 
-4.90956 3.71364 0 
5 -4.9986 0 
5 -4.99857 0 
-4.91034 1.02727 0 
-4.98906 -3.89022 0 
-4.51736 -4.99746 0 
-4.98576 -4.96963 0 
-4.71988 -3.04238 0 
-4.98024 -4.99279 0 
-4.37528 -4.98658 0 
-4.93215 1.35213 0 
-4.97174 0.358268 0 
-4.97386 4.67506 0 
-4.98641 -0.158498 0 
1.66366 1.94656 0 
-3.75094 -4.98873 0 
4.97338 -4.95397 0 
-5 -5 0 
4.99322 4.89467 0 
0.189624 -0.216129 0 
4.96854 5 0 
5 -4.99962 0 
4.99667 5 0 
-4.16984 4.9402 0 
-4.99846 -4.99539 0 
-5 -5 0 
5 -4.99134 0 
-4.9765 -0.0993814 0 
4.95214 -4.95705 0 
4.23971 -4.95081 0 
-4.8469 -3.17266 0 
5 -4.99261 0 
-4.98992 5 0 
-4.12738 -4.99407 0 
4.96314 5 0 
5 -4.99997 0 
-4.98492 -4.97965 0 
-4.84189 -4.94787 0 
-4.65192 -4.18711 0 
-4.9191 1.50855 0 
5 -4.99917 0 
-0.103137 -5 0 
-4.98908 -2.8442 0 
-4.97035 3.00058 0 
5 -4.99973 0 
-4.99992 2.78369 0 
4.96042 -4.94649 0 
5 -4.99996 0 
-3.5151 1.28529 0 
4.99631 4.95474 0 
-4.17211 -1.83252 0 
-4.99549 4.58949 0 
-4.14962 -0.286789 0 
3.61382 -4.98842 0 
-4.99997 -4.99998 0 
-4.89487 3.01824 0 
3.99395 2.88205 0 
5 -4.99981 0 
-4.99769 -4.95663 0 
5 -4.99983 0 
-4.99982 -4.99992 0 
-4.99234 -4.22115 0 
5 -4.99846 0 
-4.99484 -3.62806 0 
-4.99872 -3.89241 0 
-5 -5 0 
5 -4.99996 0 
4.9762 -4.97676 0 
5 -4.99995 0 
-4.98342 3.18147 0 
2.39379 -1.14598 0 
5 -4.99935 0 
5 -4.99975 0 
-4.98956 -0.789013 0 
-4.21285 -4.94295 0 
-4.99534 5 0 
4.93217 -4.99872 0 
-0.487378 -0.96148 0 
-4.96705 3.1808 0 
5 5 0 
-4.98248 4.60431 0 
-4.9931 -3.83673 0 
4.96905 -4.94063 0 
-4.11486 -4.99408 0 
-4.81778 -4.95708 0 
4.97794 -4.96362 0 
4.98097 -4.99916 0 
-4.95707 -4.97119 0 
5 -4.9949 0 
-0.456629 -5 0 
-4.22385 -4.13982 0 
-4.98813 -4.96657 0 
-4.93917 4.74986 0 
-4.94129 -4.83389 0 
-4.98697 -4.97119 0 
4.99844 5 0 
2.91654 -4.8111 0 
-4.93579 4.82119 0 
-4.97518 -4.97907 0 
4.58265 4.00148 0 
-4.95396 4.90078 0 
-4.94311 -4.97897 0 
-5 -5 0 
3.38923 3.51889 0 
4.97066 5 0 
-1.41528 -4.98892 0 
2.32474 1.60712 0 
5 -4.9972 0 
-4.93835 -4.97633 0 
-5 -5 0 
-4.9936 -3.20105 0 
-4.97595 0.614107 0 
-4.99991 -0.281286 0 
4.99728 5 0 
5 -4.99937 0 
-4.99605 -2.03143 0 
4.53298 4.30265 0 
4.99961 5 0 
-5 -5 0 
-2.29227 -4.98539 0 
-4.22586 3.76578 0 
-4.98928 -4.8997 0 
2.7413 -4.99997 0 
0.455388 -4.99481 0 
-0.816512 -4.9532 0 
-4.99403 5 0 
-4.9898 -4.98414 0 
-3.28372 -4.98843 0 
5 -4.99987 0 
-4.15283 -3.13058 0 
-0.0159301 -5 0 
-4.99773 4.73628 0 
-4.99992 3.63596 0 
-4.98759 5 0 
-4.95 -4.72369 0 
5 -4.99656 0 
-4.1763 -4.85578 0 
-4.9611 2.67769 0 
-4.99918 -4.68047 0 
-1.66831 -4.98726 0 
0.794554 -4.9999 0 
-4.99311 1.71774 0 
-4.9953 5 0 
-4.98886 -4.98344 0 
-1.56192 -4.98924 0 
-5 -5 0 
-4.98829 -4.98483 0 
4.98331 -4.95994 0 
-4.97057 -4.98738 0 
0.0187795 -5 0 
-5 -5 0 
-4.98999 3.73496 0 
-4.99985 -4.99994 0 
4.98486 1.15839 0 
4.97182 -4.95376 0 
-5 -5 0 
-4.98568 -4.97035 0 
-3.97341 -4.95199 0 
-4.97529 4.99839 0 
-4.94936 -3.87439 0 
-4.99991 0.617544 0 
-4.99367 4.2798 0 
-4.96196 -4.43845 0 
-4.94675 -4.76558 0 
-4.99235 -3.15752 0 
-4.96109 5 0 
-3.58825 -3.72473 0 
-4.41017 3.51666 0 
-4.76698 -4.97427 0 
-4.9823 -1.85141 0 
-1.6369 -4.86281 0 
-4.98721 -4.97344 0 
5 -4.99977 0 
5 -4.99992 0 
-4.13117 -3.25321 0 
-4.95133 -4.98199 0 
-4.99169 5 0 
-4.99684 -4.98988 0 
-4.98144 -4.9741 0 
-5 -5 0 
-5 -5 0 
-4.97475 -4.91791 0 
-4.28375 -4.99191 0 
4.86153 4.60522 0 
-4.98027 -4.97486 0 
-4.75738 -4.50988 0 
4.94488 -4.96138 0 
-4.99894 -4.53368 0 
-4.92849 1.1423 0 
-4.97189 -4.9908 0 
5 -4.99968 0 
-5 -5 0 
-4.99904 -4.87471 0 
5 -4.99864 0 
-4.99931 -4.9994 0 
0.153417 -4.99998 0 
-4.98622 -4.9707 0 
-4.98242 -0.0701323 0 
5 -4.99983 0 
-4.99217 -1.46425 0 
-4.98472 3.49945 0 
0.340031 -4.99997 0 
0.0964226 -5 0 
-4.99616 5 0 
-4.32581 3.8168 0 
-4.9997 -4.99987 0 
-2.92162 -4.60125 0 
-4.99491 -0.247271 0 
4.49256 -4.99958 0 
-4.99116 5 0 
-4.98448 0.384914 0 
-4.99107 -4.98525 0 
-5 -5 0 
4.20342 -4.99103 0 
5 -4.99902 0 
3.15083 -4.96467 0 
-4.94324 -4.49199 0 
-4.95654 -4.96882 0 
-4.98316 -4.9772 0 
-4.93987 3.61556 0 
5 -4.99955 0 
-4.99902 -4.71469 0 
4.99204 -3.18589 0 
-1.48287 -4.99756 0 
-4.95635 -4.96955 0 
4.94887 -4.95349 0 
-4.99789 5 0 
5 -4.9917 0 
4.98885 -4.94967 0 
-4.94371 -1.64138 0 
-4.99265 -4.11537 0 
-4.99376 -3.42353 0 
-4.99995 -4.99998 0 
-4.5948 -4.98543 0 
-4.99607 -4.93688 0 
-4.9991 -4.79747 0 
-4.92878 4.23077 0 
-4.94777 -4.96051 0 
-4.98083 1.69858 0 
-4.9773 5 0 
-4.99367 5 0 
4.98714 5 0 
4.95519 4.81453 0 
-3.23943 -4.9952 0 
-4.93719 -4.97741 0 
-4.97816 -1.23153 0 
-4.96056 -4.41689 0 
-4.99452 -4.3316 0 
-4.99388 -3.87858 0 
-5 -5 0 
-4.80207 -2.57053 0 
4.95966 -4.95299 0 
-4.9832 4.90864 0 
-4.95889 -4.98472 0 
5 -4.99979 0 
5 -4.99715 0 
-5 -5 0 
-5 -5 0 
4.96975 2.79234 0 
-5 -5 0 
0.572044 -4.99683 0 
-4.99896 -4.80298 0 
4.98304 -4.25541 0 
-4.9985 -4.86192 0 
5 -4.99986 0 
5 -4.99359 0 
-4.99516 -4.32973 0 
-4.98921 -3.74469 0 
5 -4.99997 0 
4.03977 -4.96997 0 
-4.95487 -1.61955 0 
-5 -5 0 
-4.97187 -4.98954 0 
-4.99546 -4.60427 0 
-4.46626 4.19102 0 
-4.99979 -4.99991 0 
-4.99791 5 0 
-4.95268 -4.7168 0 
5 -4.99983 0 
-5 -5 0 
4.998 5 0 
5 -4.99996 0 
-4.99262 -0.878692 0 
-4.99746 5 0 
-4.75826 4.12348 0 
-4.99995 4.90993 0 
-4.25334 1.34174 0 
5 -4.99997 0 
-4.2031 0.352715 0 
-4.99755 -4.99781 0 
2.81494 0.560284 0 
-4.99094 5 0 
-4.99616 -4.89912 0 
-4.45403 -4.88522 0 
-3.02487 -4.96763 0 
-4.98938 -4.98357 0 
5 -4.99981 0 
0.944527 -4.97866 0 
4.9754 -4.94806 0 
5 -4.9994 0 
-4.99085 1.17251 0 
4.94701 -2.51374 0 
5 -4.99998 0 
-4.96178 2.3377 0 
4.97901 -4.95783 0 
0.00672906 -5 0 
-4.93755 -4.97828 0 
-4.74597 -2.76111 0 
-4.99727 5 0 
-4.98019 -4.9744 0 
-4.95748 -3.44858 0 
4.99031 -4.95611 0 
5 5 0 
-4.94119 -4.9725 0 
-4.99649 5 0 
4.40271 -4.95317 0 
5 -4.99696 0 
-4.98903 5 0 
-4.98613 -4.97932 0 
-4.92787 3.24753 0 
-4.74695 2.45292 0 
-4.80564 -4.99204 0 
-3.03536 -4.97537 0 
-4.22331 -4.99481 0 
0.00158333 -4.99667 0 
-4.98573 -4.96315 0 
5 -4.99984 0 
-4.16387 -1.97428 0 
-4.27591 -4.93539 0 
5 -4.98823 0 
-4.88853 -4.99723 0 
-4.92882 -3.02909 0 
-4.99892 -4.95167 0 
-2.98294 -4.96504 0 
-4.21742 -4.9926 0 
-4.99695 5 0 
0.0506491 -5 0 
-4.92143 0.188055 0 
-5 -5 0 
-4.9484 -4.96447 0 
-4.95537 -4.71337 0 
-4.13381 -4.92507 0 
-4.99048 5 0 
-5 -5 0 
-4.95651 -4.95191 0 
-4.96714 1.43709 0 
-4.99732 -4.62825 0 
4.52347 3.65371 0 
-4.99958 -4.99962 0 
-4.85368 4.65011 0 
-4.96812 -4.99473 0 
-4.97611 5 0 
0.0124118 -5 0 
-4.99342 -4.95357 0 
-4.29986 3.50075 0 
4.97815 -4.95096 0 
-4.99533 -2.35986 0 
-4.91711 4.95294 0 
-4.76334 -4.98959 0 
-4.99992 -4.99997 0 
-4.90793 3.12801 0 
0.40709 -4.96126 0 
-4.97459 4.51594 0 
-3.94174 -4.99157 0 
-4.95751 -4.98741 0 
-4.29751 4.00681 0 
-4.94253 3.65645 0 
-4.97736 4.49233 0 
5 -4.99875 0 
5 -4.99957 0 
-4.97285 4.49507 0 
-4.33858 3.15586 0 
3.3491 1.55615 0 
-4.9683 -4.99683 0 
-4.97842 -4.36754 0 
-4.97906 -4.99233 0 
-4.07391 -3.39981 0 
-4.98948 -2.02071 0 
4.68366 4.65717 0 
-4.28382 2.00129 0 
-4.98006 3.0969 0 
5 -4.99681 0 
-5 -5 0 
5 -4.99994 0 
5 -4.9992 0 
-4.99263 4.26371 0 
-4.72899 0.203177 0 
-4.99351 5 0 
-4.78476 -4.98972 0 
-4.99746 -2.99105 0 
0.00147662 -4.98704 0 
5 -4.9943 0 
-4.98687 -4.98791 0 
-4.8755 4.60151 0 
-4.44057 -4.97612 0 
-3.88421 -4.99754 0 
5 -4.99346 0 
-4.99278 -3.5988 0 
-4.94851 -3.33732 0 
-4.98339 -4.97704 0 
-4.99687 5 0 
-4.98616 -4.97917 0 
5 -4.99708 0 
-3.23496 -4.9763 0 
4.99234 -4.96724 0 
-4.9982 5 0 
-2.74587 -4.99493 0 
4.98751 -4.95368 0 
5 -4.99709 0 
-4.92255 -1.55905 0 
-4.9833 5 0 
-4.96529 -2.6126 0 
-5 -5 0 
4.99858 -4.96338 0 
-4.28514 2.45488 0 
-4.99446 -3.33075 0 
-4.97051 -4.98363 0 
-4.99488 -4.94674 0 
-4.99996 -4.99998 0 
-5 -5 0 
-5 -5 0 
-5 -5 0 
-4.67577 2.27573 0 
-4.96842 -4.98836 0 
-5 -5 0 
-5 -5 0 
5 -0.865664 0 
5 -4.99997 0 
-4.98664 4.97585 0 
5 5 0 
-5 -4.95626 0 
-4.99701 4.97117 0 
5 -4.99964 0 
-4.97585 -5 0 
5 -4.99943 0 
5 5 0 
-5 -1.36704 0 
-4.99994 5 0 
4.70451 -4.99666 0 
-5 5 0 
4.50219 -4.99574 0 
-4.94221 4.97672 0 
-4.99993 5 0 
4.91846 4.99995 0 
-5 2.51503 0 
-5 5 0 
-4.99987 5 0 
5 -4.99991 0 
-3.81079 -3.71354 0 
5 -4.99948 0 
5 5 0 
5 -4.99906 0 
-5 5 0 
5 5 0 
5 5 0 
-5 -5 0 
-2.84902 4.98342 0 
3.14585 -4.99385 0 
4.95034 -4.9505 0 
5 4.99991 0 
-5 5 0 
-5 -5 0 
3.90497 -4.97374 0 
-4.99987 5 0 
-5 -5 0 
5 -4.99992 0 
4.94009 -4.77403 0 
-5 -5 0 
5 -4.99976 0 
-4.9999 5 0 
5 5 0 
3.51742 -4.99633 0 
0.965378 4.99969 0 
-5 -0.582548 0 
-5 5 0 
-5 5 0 
-5 5 0 
-5 -5 0 
-5 -5 0 
-5 -3.36736 0 
5 5 0 
-5 -4.08561 0 
-5 5 0 
-4.99993 5 0 
-5 5 0 
-5 5 0 
5 -4.80808 0 
-5 5 0 
-5 -5 0 
5 4.99996 0 
-4.99995 5 0 
5 5 0 
-5 -5 0 
5 -4.98548 0 
4.95548 -4.94309 0 
5 5 0 
-5 -1.0344 0 
5 5 0 
-5 5 0 
5 5 0 
-5 -5 0 
5 -4.99995 0 
5 -4.99884 0 
-4.51203 -4.4034 0 
1.4753 4.99995 0 
5 5 0 
-4.99993 -4.99998 0 
4.6844 -4.97501 0 
-4.97599 4.97422 0 
-4.96744 4.98854 0 
-5 5 0 
-5 5 0 
-5 -5 0 
-0.393876 4.99972 0 
5 5 0 
-4.99986 5 0 
5 -4.99291 0 
-5 -5 0 
5 4.99992 0 
-1.00462 4.99996 0 
5 -4.8774 0 
-5 -4.25681 0 
5 -4.99995 0 
-4.96493 4.98034 0 
4.89395 4.99963 0 
-3.15196 -5 0 
-5 -5 0 
-4.98025 4.9678 0 
-3.8743 4.99973 0 
5 5 0 
4.952 -4.94639 0 
5 -4.99991 0 
5 5 0 
5 5 0 
5 5 0 
5 5 0 
-5 -5 0 
-4.98318 4.97544 0 
5 4.88899 0 
-5 -5 0 
-5 -5 0 
-5 -5 0 
-5 5 0 
5 -4.99958 0 
-5 0.340157 0 
5 5 0 
5 5 0 
-5 5 0 
5 5 0 
-5 5 0 
5 -4.98964 0 
5 4.90732 0 
5 5 0 
-0.0193375 -2.70987 0 
5 5 0 
-5 -5 0 
5 5 0 
-5 -2.79918 0 
-5 -5 0 
5 4.99981 0 
-5 -4.94476 0 
5 4.99956 0 
-5 2.49834 0 
-5 4.59283 0 
5 5 0 
-5 -5 0 
5 5 0 
-5 -2.22015 0 
-4.95592 4.98182 0 
5 5 0 
-4.99988 5 0 
-5 5 0 
-5 5 0 
5 5 0 
-4.99996 -4.99998 0 
5 4.99995 0 
5 5 0 
5 -4.99995 0 
5 5 0 
5 4.99995 0 
5 -4.99995 0 
-5 -5 0 
5 -4.99986 0 
-5 5 0 
5 -4.91127 0 
-4.99992 5 0 
-0.929932 -2.95141 0 
-5 -5 0 
4.64915 -4.85902 0 
-4.98527 -4.79968 0 
5 -4.49495 0 
5 5 0 
5 5 0 
-5 -2.76444 0 
5 4.99986 0 
-2.87259 -1.43496 0 
-5 -4.21731 0 
5 5 0 
5 -4.99995 0 
5 -4.99905 0 
2.33966 -4.99408 0 
-5 -1.24623 0 
5 -4.99841 0 
5 -4.93775 0 
-5 5 0 
-4.15357 -4.63215 0 
5 -3.70825 0 
-4.89482 -4.91886 0 
-5 -5 0 
-5 -5 0 
5 4.8842 0 
5 5 0 
-5 5 0 
5 -4.99996 0 
-4.99994 5 0 
2.51092 -4.77209 0 
-4.86421 4.99745 0 
5 4.87406 0 
-5 5 0 
4.97566 -4.96566 0 
4.9772 -4.95872 0 
-5 5 0 
-4.99994 4.99999 0 
-5 5 0 
5 4.99996 0 
-4.99993 5 0 
-4.99988 4.99998 0 
5 -4.99232 0 
5 -4.99782 0 
-4.99996 -4.99999 0 
-5 5 0 
5 -4.99996 0 
-5 2.64314 0 
-5 5 0 
-5 -5 0 
-4.99988 5 0 
-4.99995 4.99999 0 
5 -4.99988 0 
1.88461 4.93315 0 
-5 -5 0 
5 -4.9998 0 
5 5 0 
-5 5 0 
-4.99985 5 0 
5 -4.99922 0 
5 -4.98724 0 
-5 -3.49851 0 
5 4.99989 0 
-5 -4.72671 0 
2.67825 4.99996 0 
-5 5 0 
-5 5 0 
-4.99996 -4.99999 0 
5 5 0 
-5 5 0 
-4.99995 -4.99998 0 
5 -4.99944 0 
-5 -3.90946 0 
-4.99956 5 0 
5 4.99997 0 
4.95412 -4.94415 0 
-5 -5 0 
-5 5 0 
5 -4.99914 0 
-4.98153 4.96833 0 
-5 -5 0 
5 5 0 
-0.910809 4.99994 0 
-5 -0.024872 0 
4.47646 4.87668 0 
-5 -5 0 
-5 3.96257 0 
-5 5 0 
5 5 0 
4.70867 -4.99417 0 
5 5 0 
5 -4.99994 0 
-5 5 0 
5 -4.99301 0 
-3.5761 -4.8414 0 
-4.99989 5 0 
-5 5 0 
-5 5 0 
-5 -5 0 
5 5 0 
5 -4.99988 0 
-5 5 0 
-4.99996 -4.99998 0 
-4.99988 4.99999 0 
-5 -4.73132 0 
3.41145 -4.80675 0 
-4.76808 4.9899 0 
-4.57182 -4.84692 0 
4.9822 -4.98479 0 
5 -4.99725 0 
3.07543 -4.90258 0 
5 -5 0 
-5 5 0 
-5 5 0 
-5 -5 0 
-5 -5 0 
-5 -4.09124 0 
-5 5 0 
-4.9764 4.97023 0 
1.31075 -4.94972 0 
-5 -3.23345 0 
-4.99993 4.99999 0 
-0.88425 -4.99617 0 
-5 5 0 
-4.47827 -4.68295 0 
-5 -5 0 
5 5 0 
2.38995 -4.76566 0 
-4.99997 -4.99999 0 
-5 5 0 
5 5 0 
-5 5 0 
-5 5 0 
-4.99995 5 0 
-5 -5 0 
5 5 0 
5 -4.99991 0 
5 5 0 
-4.99994 5 0 
-4.99993 4.99998 0 
0.95217 -4.98838 0 
5 -4.99908 0 
-5 -2.23479 0 
5 4.99998 0 
-5 5 0 
5 -4.99832 0 
-4.99211 4.9626 0 
-5 5 0 
5 -4.9999 0 
-2.48323 4.99994 0 
2.5723 -3.00668 0 
-4.93511 4.99996 0 
5 4.79966 0 
5 5 0 
-4.99989 -4.99997 0 
-5 5 0 
4.86392 -4.97339 0 
-4.9635 -4.96235 0 
-5 -4.99799 0 
-5 -4.95983 0 
-4.97644 -5 0 
-4.99889 -4.99918 0 
-4.91573 -4.98755 0 
4.67752 -4.97252 0 
-4.98893 2.34806 0 
4.84553 -4.97066 0 
-4.99064 -4.99997 0 
-4.99457 -4.97849 0 
-4.95924 -5 0 
-4.97286 5 0 
-5 -5 0 
4.97572 -4.65191 0 
4.64615 -5 0 
-4.95278 -4.94845 0 
-5 -5 0 
4.99671 -4.95254 0 
-5 -5 0 
-4.94255 -4.73871 0 
-4.95078 -4.98052 0 
-5 -5 0 
4.99944 -4.95373 0 
-5 -5 0 
-4.98232 4.91171 0 
-4.58593 -4.99271 0 
-4.99812 -4.99881 0 
-4.99412 -4.31139 0 
-5 -5 0 
-4.99892 -4.9801 0 
-4.92054 -4.51947 0 
-4.91027 -4.96964 0 
-4.99872 -4.9993 0 
-4.98671 4.99587 0 
-4.94705 -4.75144 0 
4.84287 -4.9494 0 
5 -4.99497 0 
-4.95297 -5 0 
-5 -4.96488 0 
5 -5 0 
-4.9715 -4.96392 0 
-4.98595 5 0 
5 -4.91921 0 
1.75246 -4.99881 0 
-4.03852 -4.93943 0 
5 -5 0 
-5 -4.9955 0 
4.84892 -5 0 
-4.98741 3.43068 0 
-4.87907 -4.91457 0 
-4.97646 -4.95345 0 
-5 -5 0 
-5 -5 0 
-4.71954 -4.9895 0 
-4.99225 -4.98387 0 
-4.95612 -5 0 
-4.9376 -4.93375 0 
-4.997 -4.98345 0 
-4.99232 -0.934383 0 
-4.99233 -4.97748 0 
-4.98829 2.96518 0 
-3.96784 -4.98476 0 
-4.99294 -4.98285 0 
-4.92698 -4.95347 0 
-4.99556 -4.19168 0 
-4.99643 -4.99853 0 
-5 -5 0 
0.33498 -4.96913 0 
-4.99314 -1.81385 0 
-4.93757 -4.5988 0 
-4.99516 4.50026 0 
4.99811 -4.96145 0 
4.99551 -4.94345 0 
1.82857 3.62546 0 
-4.99867 -4.99767 0 
-4.90876 -4.63288 0 
-5 -4.98188 0 
5 -4.88304 0 
-4.95114 -4.93148 0 
2.43724 -4.95749 0 
-4.80122 -4.97937 0 
-5 -5 0 
-4.81548 -4.97391 0 
-4.883 3.70521 0 
-4.91753 -4.96288 0 
-4.9204 -4.86194 0 
2.96254 -4.75571 0 
-4.97173 -0.310882 0 
-4.98294 -4.98205 0 
-0.23156 -4.86111 0 
-5 -5 0 
-4.88933 -2.52752 0 
-4.99047 -0.882206 0 
-5 -4.97524 0 
-5 -5 0 
-4.98784 -4.95997 0 
2.37891 -4.48848 0 
-4.99383 -4.99226 0 
-4.98694 4.37769 0 
5 -4.91769 0 
-5 -5 0 
-4.99905 -4.99912 0 
-4.94413 -4.96565 0 
-4.99348 -4.94465 0 
5 -4.95844 0 
-4.92979 -4.97991 0 
-4.92023 -4.92083 0 
-5 -5 0 
5 -5 0 
4.66015 -4.95191 0 
-4.99242 -4.98895 0 
4.98271 -4.5634 0 
4.84897 -4.80357 0 
5 5 0 
-4.98572 -4.97715 0 
-4.97847 5 0 
5 -4.96841 0 
-4.99219 -4.99569 0 
-4.93623 -4.9427 0 
-4.98717 -4.98653 0 
-4.9683 -4.7489 0 
4.92858 -4.97416 0 
4.99128 -4.15999 0 
-4.90073 -4.97368 0 
-4.99865 -4.99548 0 
4.4484 -4.97424 0 
-4.99206 -4.98956 0 
-5 -5 0 
-4.83083 -4.99151 0 
-4.95909 -4.96998 0 
-4.78202 -4.99941 0 
5 -5 0 
-4.94 -4.93426 0 
5 -5 0 
-4.99669 -4.7507 0 
-4.97456 -4.98395 0 
-4.95611 -4.58618 0 
-3.96698 -5 0 
-4.91033 -3.77591 0 
-5 -5 0 
-4.98229 5 0 
-4.99415 -4.54532 0 
-4.96848 -4.95179 0 
4.92407 -4.35319 0 
-4.41183 -4.9695 0 
-4.92799 -4.97704 0 
-5 -4.98909 0 
-4.93151 -4.99781 0 
-5 -4.97399 0 
-4.99444 -4.99922 0 
1.97298 -4.99998 0 
-4.5503 -4.99005 0 
-4.99924 -4.99936 0 
-4.32223 -4.9662 0 
-4.8828 -4.96554 0 
-4.90552 -4.96933 0 
-5 -5 0 
-4.95573 -4.9871 0 
-4.95605 -4.6811 0 
-4.97903 -4.9996 0 
-4.99939 -4.99961 0 
5 -5 0 
-4.90414 -4.31434 0 
4.37672 -4.97879 0 
4.3513 -4.95286 0 
-4.99297 -4.9377 0 
-4.99845 -1.57213 0 
5 -5 0 
-5 -5 0 
-5 -4.98494 0 
-4.9741 -4.99884 0 
5 -4.8812 0 
-4.82061 -4.9905 0 
-4.99456 -4.97891 0 
1.51673 -2.26878 0 
-4.98177 5 0 
5 -5 0 
-4.98736 -4.98303 0 
-2.11625 -5 0 
-5 -4.99186 0 
-4.90038 -4.97549 0 
4.99729 -4.95782 0 
-4.99905 -4.99951 0 
-4.91147 -5 0 
1.86903 3.04702 0 
-4.99662 -4.97817 0 
5 -4.86404 0 
-4.98968 -4.99471 0 
3.88707 -4.97595 0 
-5 -4.98498 0 
-5 -5 0 
-2.29085 -4.95837 0 
5 -4.89329 0 
-4.86368 -4.91332 0 
-4.98422 4.85202 0 
-4.98426 -4.97843 0 
5 -4.54928 0 
0.492855 -5 0 
-4.96386 -4.96063 0 
-4.99079 -4.98948 0 
5 -5 0 
-4.97747 5 0 
5 -4.2416 0 
-4.98923 -4.98875 0 
-4.98586 4.99805 0 
-4.94949 -4.99806 0 
-4.95061 -4.47873 0 
-4.64809 -5 0 
-4.99924 -4.99933 0 
-5 -5 0 
-4.99187 -4.99996 0 
-4.91898 -4.95889 0 
-5 -5 0 
-4.99498 -4.06823 0 
3.45228 -4.99999 0 
-4.89745 -4.96236 0 
3.41069 -4.98002 0 
-5 -5 0 
-4.99867 -4.99375 0 
-5 -4.93082 0 
5 -5 0 
4.2408 -4.94091 0 
-4.96193 -4.94239 0 
-4.94071 -4.91579 0 
4.29411 -4.9642 0 
3.79319 3.26504 0 
5 -5 0 
5 -5 0 
-4.43939 -4.98773 0 
-4.94847 -4.4473 0 
-4.96183 -4.73506 0 
-4.9298 -4.96755 0 
-4.97614 -4.92924 0 
-2.88607 -4.94731 0 
-3.03285 -4.98637 0 
5 -4.95668 0 
-4.99816 -3.67083 0 
-4.6296 -5 0 
2.776 -4.95923 0 
5 -5 0 
-4.98972 4.48971 0 
-4.99524 -4.99536 0 
-4.99731 -4.99859 0 
-4.97139 5 0 
-1.36486 -4.96184 0 
-4.99757 -4.99864 0 
4.10397 -4.97523 0 
-4.99746 -4.99825 0 
4.74074 -4.90798 0 
-5 -5 0 
5 -5 0 
5 -5 0 
3.56674 -4.5306 0 
-5 -4.97421 0 
-4.44576 -4.99092 0 
-4.91217 -4.77268 0 
-4.91634 -4.97624 0 
-4.99802 -3.97169 0 
-4.71254 -4.99175 0 
-4.98668 -4.98625 0 
-4.98351 5 0 
-4.9246 -4.91592 0 
-4.99348 -4.98725 0 
-4.95257 -4.92989 0 
-4.99274 -3.48911 0 
5 -4.99877 0 
-4.88535 -0.427839 0 
-2.16531 -5 0 
4.99723 -4.98476 0 
-4.52753 -4.98908 0 
-4.98801 4.82207 0 
-4.89366 1.42199 0 
-4.86429 -4.99095 0 
-4.97364 0.00974401 0 
5 -5 0 
2.33274 -4.97584 0 
-3.37434 -4.9087 0 
-4.98374 5 0 
-4.88325 3.67448 0 
-4.99683 0.948604 0 
-2.93281 -4.99307 0 
-4.9786 5 0 
-4.97338 -4.95899 0 
4.52348 -4.99453 0 
-4.98535 5 0 
-0.757387 -4.87704 0 
-4.93828 -4.9873 0 
-4.98068 5 0 
-3.98258 -4.96519 0 
-1.1353 -3.83904 0 
-4.95805 -4.95973 0 
4.99222 -4.9764 0 
-4.9693 -4.75824 0 
4.77454 -4.95914 0 
-4.95394 -4.94384 0 
-5 -5 0 
-4.98555 -4.98031 0 
-4.9312 -4.32242 0 
-5 -5 0 
-4.90931 -4.97647 0 
-0.224107 -4.97026 0 
-4.64852 -4.98953 0 
-4.99132 -4.991 0 
1.88866 0.571592 0 
-5 -4.33008 0 
-3.3979 -4.97984 0 
-4.99851 -4.99893 0 
-5 -5 0 
-4.89957 -1.67056 0 
-4.59087 -4.83313 0 
-4.97967 -4.97862 0 
-4.998 -4.12668 0 
-4.99259 -4.99243 0 
-4.99482 -4.95241 0 
-5 -4.97335 0 
-2.55906 -4.962 0 
-4.99302 4.75459 0 
-4.94328 -4.92475 0 
-4.99886 -4.99918 0 
-4.98782 -4.9802 0 
4.38979 -4.96984 0 
-4.96638 -2.83603 0 
-5 -5 0 
-5 -5 0 
-0.658644 1.4638 0 
-4.92622 -4.95151 0 
4.98388 -4.34121 0 
-4.98011 -4.18749 0 
-3.96865 -5 0 
-5 -5 0 
5 -4.88812 0 
-4.98541 -4.95652 0 
-4.98384 4.92216 0 
5 -5 0 
0.943102 -4.95942 0 
-4.96302 -4.95765 0 
-4.95471 -4.95891 0 
-4.99929 -4.98896 0 
-3.73238 -5 0 
-4.9282 -4.73846 0 
-5 -5 0 
2.69065 -4.97791 0 
-2.58117 -4.97845 0 
-4.92503 -4.97281 0 
-4.99867 4.00678 0 
-4.99807 -4.99417 0 
-4.65362 -4.99014 0 
-4.79789 -4.78297 0 
-4.92161 -4.92198 0 
-4.97815 5 0 
-4.99489 -4.99039 0 
-5 -5 0 
-4.99505 -3.83699 0 
-4.95406 -4.948 0 
4.92978 -4.95735 0 
-4.96218 -4.96266 0 
5 -4.99481 0 
-5 -5 0 
-4.99509 -4.98587 0 
-4.97741 2.68765 0 
-2.7719 -4.98245 0 
-4.99651 -4.70999 0 
5 -5 0 
5 -4.94864 0 
-0.678883 -4.9694 0 
-4.99221 -4.95895 0 
4.97475 4.95865 0 
-4.96634 -4.98424 0 
-4.97878 -4.97291 0 
-4.99923 -4.53684 0 
-4.93015 -4.98087 0 
-4.98779 -2.39567 0 
5 -4.23581 0 
-4.99688 4.84951 0 
-5 -5 0 
-4.99909 -4.99949 0 
5 -5 0 
-5 -5 0 
-4.99929 -4.99942 0 
0.748983 -4.95573 0 
5 -4.96878 0 