<VTKFile type="UnstructuredGrid" version="0.1" byte_order="BigEndian">
  <UnstructuredGrid>
        <Piece NumberOfPoints="8000" NumberOfCells="0" Time= "0.36">      <Points>
        <DataArray name="Position" type="Float32"  NumberOfComponents= "3"  format="ascii">

58.3905 19.0022 0 
60.3805 28.9868 0 
61.683 24.6172 0 
63.8439 25.9881 0 
63.0355 36.8975 0 
66.1992 2.05576 0 
66.4632 14.1349 0 
65.0139 25.0254 0 
66.0515 25.6137 0 
65.5111 25.0946 0 
64.652 29.9049 0 
65.3096 33.4683 0 
68.0993 23.5705 0 
68.6143 26.7102 0 
68.1823 27.2829 0 
67.5786 29.2792 0 
67.5356 27.7708 0 
68.0016 28.4243 0 
68.7148 29.0468 0 
68.5534 31.0939 0 
68.6965 32.5865 0 
68.5952 36.6698 0 
66.9012 35.3584 0 
69.7364 38.5601 0 
70.6516 38.9291 0 
69.415 0.372 0 
71.3881 2.02371 0 
71.2303 4.09278 0 
69.7799 3.43606 0 
70.587 6.93472 0 
69.9576 5.07658 0 
71.3075 7.4026 0 
70.5653 11.5512 0 
71.0626 11.3388 0 
69.3544 14.0648 0 
71.1725 12.877 0 
70.8132 14.0959 0 
70.8539 11.8798 0 
69.8884 15.9622 0 
71.1677 17.5219 0 
71.2731 15.8393 0 
71.4159 16.1871 0 
69.4541 18.6619 0 
70.4373 18.0729 0 
70.1664 18.689 0 
69.5691 17.7823 0 
70.2165 19.4568 0 
69.5919 20.9687 0 
70.4855 21.1597 0 
70.1733 19.9122 0 
70.9245 21.586 0 
70.0084 23.9628 0 
69.3945 24.983 0 
68.7001 25.8122 0 
70.5563 24.5713 0 
69.7288 25.0822 0 
69.4787 26.0637 0 
70.6106 26.1111 0 
69.4821 29.1338 0 
70.163 27.1561 0 
70.6939 28.3117 0 
69.6296 30.5084 0 
70.657 31.285 0 
70.9946 30.3129 0 
71.2058 35.0956 0 
71.5199 33.8778 0 
70.3003 34.2273 0 
70.9845 34.5327 0 
71.2768 35.6109 0 
70.3393 35.554 0 
70.0889 35.2818 0 
71.1551 36.9778 0 
69.2974 35.2636 0 
69.5082 38.6168 0 
70.3335 37.4817 0 
72.3655 1.31534 0 
73.4237 0.997484 0 
73.7828 1.61443 0 
72.5096 0.538811 0 
72.9378 0.744194 0 
71.5224 39.1532 0 
72.4828 3.45184 0 
72.9353 3.54246 0 
73.0116 5.22253 0 
72.8957 2.76466 0 
71.6409 3.01743 0 
73.2775 6.85662 0 
73.7177 7.29471 0 
72.3311 6.42576 0 
72.3323 5.60503 0 
72.684 5.42508 0 
71.5432 5.05253 0 
72.7334 7.93839 0 
71.9825 7.18917 0 
72.1176 8.34257 0 
73.4039 9.47948 0 
72.9631 9.26273 0 
72.8135 11.8963 0 
74.0874 12.3011 0 
72.5017 10.5591 0 
73.4811 12.5533 0 
72.5194 13.5594 0 
72.9696 14.5011 0 
72.206 15.9246 0 
72.5388 14.843 0 
73.6669 16.7501 0 
72.5416 16.0465 0 
73.471 15.181 0 
73.656 16.1919 0 
74.009 16.2372 0 
72.3327 15.922 0 
73.6608 15.9245 0 
73.5782 17.8058 0 
73.8946 18.0714 0 
72.5726 17.3489 0 
71.5692 19.0879 0 
72.8338 18.2762 0 
72.4887 19.7523 0 
72.2202 21.2901 0 
72.088 20.6184 0 
73.0775 21.0726 0 
73.5574 21.0056 0 
71.5851 19.7702 0 
72.6337 22.2736 0 
73.5963 20.7355 0 
73.5691 21.7807 0 
73.1195 23.2406 0 
72.1048 22.5886 0 
72.4152 22.8268 0 
72.0273 24.1406 0 
73.0911 22.107 0 
73.6636 24.6705 0 
72.1468 24.5826 0 
73.0823 26.8583 0 
71.481 25.8567 0 
74.0674 25.609 0 
73.2056 25.5453 0 
72.6058 26.6398 0 
71.7333 27.6136 0 
73.6304 28.6712 0 
73.127 28.7112 0 
72.9818 29.09 0 
72.6245 32.0517 0 
72.1565 31.2827 0 
71.8351 30.5865 0 
73.4083 29.943 0 
72.5975 29.5266 0 
72.3857 30.8887 0 
72.4678 34.1263 0 
73.6382 32.9523 0 
73.7164 32.7296 0 
72.6195 33.0847 0 
72.6291 32.8115 0 
73.3699 34.6687 0 
73.4196 34.0412 0 
73.779 33.2166 0 
73.0262 35.604 0 
73.3072 35.4766 0 
73.1478 35.1634 0 
72.7199 35.656 0 
73.3399 36.5399 0 
73.2056 36.706 0 
73.5653 38.1988 0 
73.6305 38.4658 0 
74.3447 0.281884 0 
75.6209 0.517141 0 
76.1113 37.5528 0 
74.6881 0.675037 0 
75.0165 1.6563 0 
75.3032 0.767226 0 
74.7072 1.40708 0 
75.2618 2.51855 0 
74.0826 1.42072 0 
75.5907 0.920528 0 
74.1758 0.0316171 0 
76.1738 2.27052 0 
74.4668 2.65423 0 
74.4985 2.49051 0 
75.1138 2.2309 0 
75.5282 3.59362 0 
74.676 2.89221 0 
75.3867 3.34896 0 
74.4033 2.99926 0 
75.0747 4.31271 0 
75.9063 3.57657 0 
74.642 3.81318 0 
74.3825 4.30573 0 
74.3798 4.26569 0 
76.2919 2.86025 0 
75.5393 5.5401 0 
74.4764 5.10317 0 
75.4616 5.054 0 
75.1257 4.9312 0 
75.0507 7.11136 0 
74.3482 5.77257 0 
75.17 6.24423 0 
74.0706 9.76562 0 
75.3865 8.54076 0 
74.42 8.52855 0 
75.2508 9.47575 0 
74.4517 8.79547 0 
76.2028 10.3535 0 
75.3189 7.47185 0 
75.9664 10.4032 0 
75.5664 11.5835 0 
76.2353 11.5194 0 
75.5341 11.9101 0 
75.3309 10.7823 0 
74.1669 11.1998 0 
75.291 10.8277 0 
75.3766 10.5549 0 
75.4035 11.2912 0 
74.8108 12.1175 0 
75.7866 11.6705 0 
75.091 13.6833 0 
76.4477 12.7722 0 
75.8814 13.8871 0 
75.5215 13.4112 0 
74.2577 14.6276 0 
76.0859 12.3859 0 
75.0929 12.6315 0 
75.1893 14.5593 0 
74.3824 13.722 0 
75.7929 16.4759 0 
75.4583 15.1565 0 
75.0885 14.8008 0 
74.1274 14.8025 0 
75.6881 16.1365 0 
75.906 15.2345 0 
75.5508 16.3238 0 
75.4391 16.2982 0 
75.2567 15.5478 0 
75.5788 17.0664 0 
74.7349 16.5928 0 
76.2761 19.1534 0 
75.6126 18.2671 0 
74.1397 17.1486 0 
74.737 17.4414 0 
74.8945 18.0271 0 
75.6986 17.8992 0 
75.9888 18.9363 0 
76.4286 18.3676 0 
76.4722 17.1255 0 
74.0367 19.3116 0 
75.6776 19.3602 0 
75.2716 20.7945 0 
75.6653 21.64 0 
74.5132 22.3239 0 
74.2917 22.4894 0 
75.2664 22.3019 0 
74.2481 21.0538 0 
74.4671 19.9951 0 
76.2957 20.8483 0 
75.7636 21.191 0 
73.9113 24.0605 0 
74.0594 22.6626 0 
75.1215 22.6225 0 
76.1198 21.9958 0 
75.5597 23.2044 0 
75.3824 24.8913 0 
75.4074 22.8497 0 
74.5361 21.7595 0 
74.3504 24.3628 0 
75.3548 22.7766 0 
75.1351 23.383 0 
75.0042 26.5759 0 
75.4856 24.373 0 
75.0717 25.9286 0 
76.0259 26.2275 0 
74.9549 25.4994 0 
75.8693 26.6609 0 
74.6343 25.0665 0 
74.5206 25.1003 0 
74.7207 25.9394 0 
76.1177 25.1167 0 
74.6735 24.3799 0 
74.356 26.1904 0 
74.8966 26.1039 0 
76.5935 25.7971 0 
74.1498 26.173 0 
75.69 24.5034 0 
75.4792 27.7106 0 
74.8762 27.6847 0 
75.8068 28.208 0 
74.165 29.9014 0 
76.2383 26.9112 0 
74.3401 27.3767 0 
76.3353 27.7399 0 
75.5379 29.2944 0 
75.2947 27.4523 0 
75.6069 29.2303 0 
76.393 27.8073 0 
76.1317 30.0046 0 
76.3368 31.6768 0 
76.312 31.5633 0 
75.5717 31.5654 0 
74.3585 29.9735 0 
76.0991 30.6825 0 
75.2609 30.5628 0 
74.35 31.369 0 
76.091 29.7147 0 
75.2149 33.7921 0 
75.6147 33.932 0 
74.7374 33.5809 0 
74.6646 33.3827 0 
75.983 32.4944 0 
74.766 32.283 0 
75.5723 34.2455 0 
76.6471 34.5197 0 
75.0366 33.0231 0 
74.3793 33.8471 0 
74.6649 32.8668 0 
74.2669 33.6718 0 
75.4723 33.3214 0 
75.0341 32.894 0 
75.7067 33.0798 0 
75.6849 32.5064 0 
76.3764 33.5128 0 
75.5295 34.1754 0 
74.1733 34.4587 0 
76.1896 35.5225 0 
75.5927 35.3117 0 
75.5118 36.7162 0 
75.5081 35.9675 0 
74.6581 36.5037 0 
75.1215 36.9788 0 
74.2803 38.1302 0 
75.0958 37.8882 0 
75.3488 37.5401 0 
76.431 38.796 0 
74.8001 37.5837 0 
76.0238 37.6128 0 
75.1995 37.2735 0 
74.2905 37.9755 0 
76.124 38.3954 0 
74.5288 37.2604 0 
77.7042 38.765 0 
78.3011 0.659148 0 
78.6589 2.02639 0 
78.3192 1.26715 0 
79.0717 2.05559 0 
77.4193 0.878514 0 
78.9247 0.391338 0 
78.7474 0.957881 0 
78.6492 3.12769 0 
77.2816 3.1829 0 
78.2052 4.61065 0 
78.7392 2.36999 0 
76.8759 4.51663 0 
77.0034 2.31245 0 
77.9242 4.58384 0 
77.6174 3.66575 0 
77.8063 2.06544 0 
78.3277 4.03452 0 
77.5727 5.03731 0 
77.1578 7.02796 0 
77.6987 5.66117 0 
77.5609 6.36492 0 
77.8742 5.6184 0 
76.8662 5.97825 0 
78.2492 5.85414 0 
77.1897 6.40242 0 
76.3907 7.08407 0 
76.932 6.51451 0 
77.2429 6.59113 0 
78.6846 6.36845 0 
76.8225 6.57059 0 
77.9998 6.65017 0 
77.3321 7.37711 0 
78.4465 8.73559 0 
77.7875 8.19683 0 
77.8617 9.38351 0 
78.753 7.16653 0 
78.5273 6.4854 0 
78.3239 7.78012 0 
76.3966 8.99558 0 
77.0674 8.67728 0 
77.6886 10.4432 0 
77.3828 8.03645 0 
78.2128 7.84291 0 
76.8451 12.0639 0 
77.6347 11.4412 0 
77.0658 10.0273 0 
77.8924 9.15133 0 
77.4988 12.0971 0 
77.2098 11.5038 0 
77.3488 11.4701 0 
77.3371 10.3595 0 
78.9418 9.68208 0 
78.2674 10.7809 0 
78.7168 9.638 0 
77.5026 11.1903 0 
77.5251 12.1601 0 
77.9298 9.93931 0 
77.9569 12.0595 0 
78.5325 11.2449 0 
77.5135 11.2638 0 
78.9445 10.2681 0 
78.7699 9.89738 0 
77.8346 10.6409 0 
77.0462 12.9227 0 
76.9592 11.0345 0 
76.5096 10.6545 0 
78.5886 13.8908 0 
78.6174 12.1543 0 
78.0597 11.9668 0 
76.591 14.8223 0 
77.0702 13.1506 0 
76.5437 13.4326 0 
79.105 14.9733 0 
76.6467 13.5832 0 
77.0883 13.6419 0 
76.9389 14.3469 0 
78.4358 12.7252 0 
76.5201 14.0023 0 
78.4093 12.7488 0 
76.5469 12.3937 0 
77.3725 13 0 
78.019 13.3884 0 
77.466 15.9181 0 
78.5505 16.7838 0 
78.5359 16.3162 0 
76.915 15.8763 0 
78.026 16.0457 0 
77.1454 14.2077 0 
77.2049 15.5892 0 
77.3535 16.5402 0 
77.4761 16.1454 0 
78.7559 17.1916 0 
76.4212 16.8797 0 
77.9536 16.5747 0 
77.4963 16.5721 0 
78.4686 16.7918 0 
79.0854 17.3418 0 
76.6127 16.8591 0 
76.7718 15.2794 0 
78.4607 14.3358 0 
77.5099 14.9789 0 
78.7664 16.2287 0 
77.5346 16.5286 0 
77.3811 18.5107 0 
77.8752 18.6828 0 
78.1445 17.3917 0 
78.4597 19.0669 0 
77.0843 19.5105 0 
78.6243 18.7758 0 
78.288 17.5232 0 
78.2224 19.9059 0 
77.3355 17.5026 0 
78.1482 18.9001 0 
77.6693 19.1179 0 
78.3388 20.2643 0 
78.5431 20.9732 0 
77.8668 19.7636 0 
77.4734 21.2732 0 
76.9577 20.2201 0 
76.7187 21.5642 0 
79.1704 21.1199 0 
77.3886 19.937 0 
77.9918 20.4477 0 
78.0901 19.935 0 
78.1501 20.0197 0 
76.5871 19.1942 0 
77.3937 22.0652 0 
78.8002 22.095 0 
77.2421 21.4324 0 
77.5577 20.8776 0 
78.8739 19.7082 0 
77.1502 20.5419 0 
78.1669 20.2984 0 
76.6214 23.2812 0 
78.4379 22.8607 0 
77.115 24.0573 0 
76.3869 23.5411 0 
78.6461 23.4255 0 
77.128 22.0515 0 
76.9416 22.7054 0 
78.1639 23.7739 0 
78.3854 23.7925 0 
77.5746 21.8734 0 
78.5268 22.0222 0 
78.5547 23.858 0 
77.3723 23.1893 0 
76.498 21.885 0 
77.953 23.1696 0 
76.6408 24.2721 0 
78.2718 26.5596 0 
78.247 25.3245 0 
78.8241 25.7533 0 
76.5262 26.3157 0 
79.0019 26.3709 0 
76.7282 26.4623 0 
78.3175 25.3997 0 
77.1924 25.012 0 
77.8339 25.4037 0 
78.5572 25.3002 0 
77.4729 25.2898 0 
78.5535 26.5846 0 
78.3217 26.0567 0 
76.498 26.1757 0 
78.1412 26.0606 0 
78.6328 26.1297 0 
77.4249 26.1697 0 
77.0969 26.7795 0 
77.1016 24.5222 0 
77.2001 25.0836 0 
78.1862 26.6519 0 
78.2167 26.704 0 
78.2982 26.0724 0 
77.2957 27.8378 0 
78.6931 27.2462 0 
78.486 28.4156 0 
78.5835 28.7154 0 
76.9476 28.7254 0 
77.2063 28.0106 0 
77.4991 29.2176 0 
77.9574 27.6989 0 
[...]
      <PointData Vectors="vector">
        <DataArray type="Float32" Name="Velocity" NumberOfComponents="3" format="ascii">

-247.14 -185.82 0 
-217.522 -134.619 0 
-231.477 -103.832 0 
-213.044 -121.926 0 
-222.551 -80.1046 0 
-204.114 -67.0263 0 
-178.278 72.2329 0 
-180.913 -28.5737 0 
-228.891 -122.189 0 
-206.74 -111.189 0 
-196.237 -14.8056 0 
-209.092 -99.2805 0 
-196.948 -77.3016 0 
-207.101 -50.3733 0 
-180.041 -44.0791 0 
-229.613 -83.4254 0 
-269.565 -148.542 0 
-232.156 -184.923 0 
-248.654 -133.939 0 
-227.77 -147.878 0 
-242.792 -134.959 0 
-207.101 -5.63118 0 
-195.782 -139.632 0 
-272.422 -98.3854 0 
-238.964 -115.032 0 
-205.287 -177.7 0 
-212.845 -162.205 0 
-186.842 -103.852 0 
-263.291 -88.967 0 
-199.541 31.1947 0 
-225.779 -97.5067 0 
-206.903 -109.915 0 
-202.27 -109.619 0 
-209.117 -113.171 0 
-209.354 -68.8275 0 
-219.566 -64.5939 0 
-188.806 -56.3488 0 
-192.324 -95.1629 0 
-216.418 -100.511 0 
-231.174 -59.9626 0 
-271.846 -76.4792 0 
-177.346 -52.512 0 
-172.85 -34.7289 0 
-236.175 -59.5167 0 
-198.172 -45.1545 0 
-183.005 90.4103 0 
-204.862 -15.59 0 
-238.029 -67.8507 0 
-138.367 79.0001 0 
-215.972 -43.1754 0 
-179.494 -46.0252 0 
-217.535 -28.0574 0 
-259.363 -191.525 0 
-164.287 99.6482 0 
-200.898 2.71108 0 
-196.28 -46.7879 0 
-187.148 -39.0322 0 
-226.368 -174.978 0 
-206.639 -137.426 0 
-146.625 92.288 0 
-162.826 -0.94999 0 
-265.037 -152.189 0 
-208.083 -175.668 0 
-196.489 -122.355 0 
-143.583 107.703 0 
-172.93 8.34812 0 
-189.521 -158.817 0 
-234.492 -176.917 0 
-238.038 -128.449 0 
-254.49 -123.93 0 
-184.405 -170.543 0 
-200.435 -151.545 0 
-246.64 -108.427 0 
-268.515 -143.28 0 
-161.834 -167.073 0 
-214.515 -166.415 0 
-195.828 -130.788 0 
-164.552 -19.5171 0 
-227.331 -120.583 0 
-212.698 -190.819 0 
-210.532 -157.059 0 
-207.885 -80.7426 0 
-217.314 -99.7563 0 
-218.497 -77.7135 0 
-178.48 7.97778 0 
-212.271 -67.1408 0 
-198.527 -121.68 0 
-243.19 -111.392 0 
-172.921 -77.0864 0 
-175.735 -117.083 0 
-193.324 63.6861 0 
-191.669 -85.2784 0 
-234.677 -155.583 0 
-235.191 -61.233 0 
-225.881 34.7496 0 
-222.02 -113.993 0 
-217.094 -84.7114 0 
-228.865 -74.6061 0 
-245.954 -83.86 0 
-174.801 -66.6733 0 
-225.789 -91.4462 0 
-193.558 -100.926 0 
-235.795 -57.5822 0 
-206.384 -89.9439 0 
-245.85 -63.3134 0 
-268.204 -110.795 0 
-245.962 -120.987 0 
-211.129 -76.0943 0 
-222.343 -36.9015 0 
-197.381 -86.1677 0 
-220.505 -98.4274 0 
-174.209 93.6441 0 
-243.736 -74.2392 0 
-187.608 -51.5933 0 
-146.312 68.243 0 
-218.551 -69.7759 0 
-224.304 -51.6538 0 
-164.541 64.821 0 
-227.57 -44.6339 0 
-212.087 -94.4139 0 
-219.248 -54.709 0 
-239.246 -228.546 0 
-192.052 -62.4056 0 
-187.303 91.975 0 
-239.396 -41.801 0 
-131.599 85.9817 0 
-231.636 -22.6166 0 
-192.932 -195.492 0 
-205.605 17.0231 0 
-175.996 -37.3712 0 
-203.64 -39.0958 0 
-223.395 -36.172 0 
-248.462 -177.293 0 
-220.512 -128.717 0 
-191.576 -167.817 0 
-215.886 -165.207 0 
-218.565 19.6098 0 
-132.454 86.314 0 
-214.816 -52.4241 0 
-203.265 -149.015 0 
-223.195 -37.3258 0 
-217.852 -9.69533 0 
-248.336 -17.8247 0 
-175.395 -26.1738 0 
-236.706 -162.951 0 
-158.009 -7.13002 0 
-163.738 79.8834 0 
-190.556 -162.401 0 
-215.557 2.07782 0 
-227.735 -180.15 0 
-206.199 -189.264 0 
-217.894 25.7532 0 
-202.42 -155.895 0 
-224.587 -147.016 0 
-240.218 -18.383 0 
-262.865 -164.06 0 
-282.765 -187.879 0 
-230.14 -175.852 0 
-172.651 -11.6995 0 
-157.904 0.00250849 0 
-207.337 -148.287 0 
-160.149 4.06144 0 
-196.243 142.777 0 
-249.269 -154.905 0 
-181.473 -119.07 0 
-230.148 -130.28 0 
-259.677 -142.694 0 
-256.352 -103.691 0 
-258.167 -152.957 0 
-203.819 -4.29945 0 
-235.382 -145.987 0 
-242.511 -137.51 0 
-234.33 -137.087 0 
-211.772 -154.94 0 
-203.015 -154.611 0 
-185.703 -71.0234 0 
-219.079 -151.761 0 
-198.101 -172.525 0 
-203.901 -139.203 0 
-168.547 -152.484 0 
-252.485 -159.893 0 
-214.025 -145.075 0 
-214.114 -17.0791 0 
-217.747 -99.4887 0 
-192.643 -106.9 0 
-172.933 11.6208 0 
-190.03 7.32088 0 
-209.169 -130.926 0 
-181.83 -109.326 0 
-219.191 -118.519 0 
-184.074 -98.5303 0 
-203.347 -63.2931 0 
-252.117 -134.26 0 
-201.189 -104.979 0 
-278.862 -66.0462 0 
-248.302 -80.0679 0 
-205.814 -70.6652 0 
-194.671 -79.4524 0 
-212.561 -17.5618 0 
-206.385 -140.714 0 
-208.811 1.20623 0 
-219.909 -93.2029 0 
-237.265 -127.184 0 
-182.137 -83.3431 0 
-206.425 17.2538 0 
-189.598 -107.833 0 
-205.09 -122.286 0 
-186.946 -71.1106 0 
-272.324 -116.713 0 
-213.279 -96.0438 0 
-195.55 -49.3013 0 
-193.045 -56.9928 0 
-195.531 -86.9765 0 
-202.514 -87.6616 0 
-196.984 -122.373 0 
-207.171 -99.7991 0 
-196.593 -70.5856 0 
-252.009 -97.1699 0 
-204.036 -99.9949 0 
-179.422 50.431 0 
-232.629 -83.4242 0 
-179.772 -68.2877 0 
-206.747 -114.523 0 
-213.829 -67.2153 0 
-210.992 -104.179 0 
-178.833 -82.7426 0 
-150.52 78.9135 0 
-181.043 -84.1748 0 
-190.747 -84.0362 0 
-181.206 -81.1174 0 
-234.771 -66.5333 0 
-150.612 -88.5356 0 
-183.334 -104.073 0 
-209.483 -56.0359 0 
-219.168 -79.3038 0 
-211.549 -75.9269 0 
-161.319 60.8022 0 
-214.16 -213.558 0 
-169.87 -37.2266 0 
-170.471 -99.8473 0 
-234.935 -103.575 0 
-236.307 -90.9695 0 
-177.535 -68.9151 0 
-233.869 -33.9843 0 
-174.294 96.9061 0 
-200.645 -58.4852 0 
-234.102 -80.5262 0 
-160.48 -50.2726 0 
-197.97 -84.9627 0 
-190.432 -65.9109 0 
-171.938 67.1381 0 
-177.134 -38.6073 0 
-229.089 -92.8055 0 
-245.255 -89.4075 0 
-217.481 -61.7754 0 
-229.808 7.11921 0 
-217.803 -189.563 0 
-244.006 -198.088 0 
-182.395 -210.898 0 
-226.702 -60.3651 0 
-209.383 -68.7332 0 
-142.181 -172.888 0 
-224.952 -15.3296 0 
-201.637 -72.9525 0 
-153.3 -16.6402 0 
-217.306 -240.65 0 
-223.073 -64.8902 0 
-203.413 -188.696 0 
-184.834 92.349 0 
-225.701 -31.0004 0 
-206.635 -75.1332 0 
-148.378 116.062 0 
-211.022 -41.7458 0 
-208.461 -54.3821 0 
-236.473 -157.553 0 
-240.046 -143.238 0 
-220.275 -205.535 0 
-197.233 -183.895 0 
-230.245 -204.41 0 
-231.823 -28.0981 0 
-197.617 -194.395 0 
-202.728 -176.058 0 
-209.117 -51.5261 0 
-225.805 -170.958 0 
-185.513 77.572 0 
-117.512 71.4819 0 
-196.142 -39.6999 0 
-235.489 -69.5839 0 
-198.727 -32.8623 0 
-185.825 104.022 0 
-219.936 -194.511 0 
-229.015 -170.651 0 
-208.112 -164.865 0 
-217.489 -187.219 0 
-219.789 -155.913 0 
-249.737 -155.228 0 
-253.136 -4.27321 0 
-207.019 -186.203 0 
-182.331 -167.477 0 
-231.248 4.65015 0 
-175.955 -171.857 0 
-215.92 -51.1602 0 
-195.292 -149.705 0 
-202.293 -145.355 0 
-196.503 -50.9194 0 
-183.862 10.6046 0 
-190.971 -41.0807 0 
-247.892 -30.0227 0 
-207.897 -6.02168 0 
-243.425 -184.036 0 
-182.265 -126.461 0 
-202.588 14.5638 0 
-148.849 -12.5544 0 
-193.647 10.5911 0 
-180.836 -181.545 0 
-182.784 -200.343 0 
-199.124 -11.78 0 
-174.259 23.8598 0 
-188.401 -179.658 0 
-205.052 -173.365 0 
-207.903 -142.362 0 
-212.38 -141.024 0 
-240.783 -109.603 0 
-216.422 -150.14 0 
-202.58 -162.375 0 
-229.886 -138.016 0 
-229.322 -183.082 0 
-157.837 16.0632 0 
-179.697 4.35648 0 
-201.409 -0.523933 0 
-155.002 107.6 0 
-217.443 -190.89 0 
-234.254 -167.906 0 
-220.781 -180.165 0 
-223.34 -153.851 0 
-216.37 -154.898 0 
-222.498 -177.548 0 
-234.426 -150.453 0 
-193.348 -149.444 0 
-251.345 -163.449 0 
-228.9 -153.912 0 
-162.877 -13.946 0 
-241.405 29.6602 0 
-238.567 -157.5 0 
-243.872 -183.112 0 
-211.381 -108.935 0 
-193.83 -155.843 0 
-166.796 -127.646 0 
-179.098 -149.706 0 
-245.723 -121.724 0 
-219.237 -149.882 0 
-232.835 -102.902 0 
-228.874 -112.232 0 
-148.35 -158.877 0 
-175.615 -152.093 0 
-211.006 -166.577 0 
-228.266 -1.45249 0 
-204.77 -170.311 0 
-239.338 -126.541 0 
-205.93 -182.206 0 
-169.923 -132.466 0 
-187.295 -169.356 0 
-168.689 29.5324 0 
-175.581 -145.033 0 
-231.363 -138.347 0 
-168.221 -97.9899 0 
-174.937 -131.366 0 
-231.159 -128.422 0 
-230.035 -136.481 0 
-231.622 -130.256 0 
-148.671 -11.6422 0 
-203.309 -147.743 0 
-180.099 22.5208 0 
-220.509 -148.187 0 
-175.475 -51.572 0 
-199.898 -111.908 0 
-166.544 -4.19164 0 
-198.91 -131.361 0 
-201.761 -132.153 0 
-215.72 -139.046 0 
-173.967 -14.3993 0 
-228.272 -125.648 0 
-180.875 -131.432 0 
-204.38 -96.3522 0 
-172.37 -118.769 0 
-198.247 -128.916 0 
-228.293 -152.424 0 
-206.84 -86.6862 0 
-139.493 -81.0302 0 
-215.351 -93.9979 0 
-188.146 -92.6585 0 
-199.305 -106.864 0 
-212.452 -98.9751 0 
-214.6 -130.636 0 
-225.812 -120.766 0 
-181.923 -109.711 0 
-230.924 -81.5478 0 
-216.683 -118.432 0 
-239.034 -122.004 0 
-228.218 -138.176 0 
-230.961 -89.941 0 
-140.3 51.4926 0 
-245.59 -98.5534 0 
-169.636 39.7435 0 
-196.261 -89.9175 0 
-160.955 -87.5041 0 
-221.923 -125.803 0 
-223.452 -99.577 0 
-200.034 -106.577 0 
-221.261 -144.721 0 
-208.433 -153.72 0 
-231.78 -94.071 0 
-200.765 -131.68 0 
-178.557 -129.389 0 
-185.319 -85.975 0 
-200.456 -117.301 0 
-194.694 -83.8776 0 
-164.904 -54.5078 0 
-164.535 19.4764 0 
-201.186 29.3578 0 
-189.24 -110.426 0 
-224.61 -77.7709 0 
-243.479 -129.827 0 
-207.521 -106.389 0 
-136.339 -85.0513 0 
-187.846 -122.805 0 
-184.316 -82.478 0 
-183.35 -61.4088 0 
-207.849 -61.5578 0 
-180.908 -110.744 0 
-204.589 -61.4874 0 
-191.514 15.3662 0 
-172.013 -70.6753 0 
-233.176 -95.6321 0 
-221.233 -78.9254 0 
-189.16 -116.891 0 
-249.818 -98.6869 0 
-179.014 -64.6104 0 
-201.664 -103.162 0 
-211.742 -53.2684 0 
-198.124 -90.7462 0 
-197.585 -86.195 0 
-222.895 -89.4667 0 
-267.537 -69.8515 0 
-195.251 -72.9133 0 
-129.972 31.0517 0 
-184.826 -57.9549 0 
-202.396 -61.2758 0 
-188.492 -87.752 0 
-191.798 -69.053 0 
-173.759 -34.8114 0 
-198.19 -91.9491 0 
-241.43 -78.7235 0 
-189.982 -40.0543 0 
-132.928 83.042 0 
-185.355 -93.4499 0 
-202.856 -81.604 0 
-199.521 -256.699 0 
-183.225 -32.3852 0 
-128.419 -60.7314 0 
-224.522 -114.164 0 
-201.642 -105.525 0 
-195.261 -76.0556 0 
-199.05 -71.1874 0 
-179.132 -115.353 0 
-165.46 -242.891 0 
-199.861 -25.0558 0 
-247.626 -42.3781 0 
-184.491 -82.7998 0 
-238.446 -230.7 0 
-208.01 -45.344 0 
-203.235 -61.4617 0 
-190.208 -20.9279 0 
-208.798 -220.856 0 
-172.209 -87.5195 0 
-163.897 -60.3513 0 
-188.236 -68.8322 0 
-189.03 -81.3748 0 
-215.771 -46.294 0 
-230.785 -144.181 0 
-218.483 -231.023 0 
-201.316 -154.175 0 
-197.705 -50.7377 0 
-202.811 -60.8328 0 
-196.142 -197.929 0 
-222.083 -46.8507 0 
-219.54 -52.1256 0 
-206.173 69.7963 0 
-226.826 -40.5064 0 
-197.164 -65.5407 0 
-206.175 -73.7375 0 
-170.871 -188.847 0 
-179.084 -68.6419 0 
-194.14 -79.8969 0 
-173.02 -46.8046 0 
-225.027 -42.7201 0 
-189.631 16.09 0 
-195.843 -207.676 0 
-227.142 -193.797 0 
-141.997 88.7058 0 
-262.595 -30.2693 0 
-198.916 13.8783 0 
-199.87 -193.25 0 
-228.205 -184.122 0 
-190.471 -203.765 0 
-208.364 -159.449 0 
-214.102 -30.7556 0 
-204.346 -205.479 0 
-202.878 -170.792 0 
-226.487 -141.721 0 
-208.329 -186.273 0 
-180.178 -3.99151 0 
-226.129 -185.837 0 
-166.704 -143.351 0 
-203.434 8.84071 0 
-197.328 -35.358 0 
-182.371 -32.5396 0 
-208.108 6.63534 0 
-196.99 18.0094 0 
-200.216 -45.9301 0 
-218.094 3.07502 0 
-212.107 -173.673 0 
-144.51 -43.5681 0 
-204.486 -16.7818 0 
-176.19 106.067 0 
-200.915 -189.45 0 
-223.769 -188.838 0 
-189.679 -168.688 0 
-207.458 -6.31938 0 
-219.41 -162.757 0 
-235.268 -142.974 0 
-211.171 -177.374 0 
-218.727 -166.222 0 
-209.809 -151.227 0 
-208.683 -7.88866 0 
-157.802 -25.5671 0 
-229.561 -157.257 0 
-213.61 -205.489 0 
-248.929 -163.521 0 
-208.356 18.684 0 
-172.958 119.311 0 
-237.476 -174.737 0 
-207.805 -171.75 0 
-216.366 -136.854 0 
-234.305 -135.767 0 
-215.532 -155.813 0 
-222.085 -185.019 0 
-126.074 109.724 0 
-155.082 11.2092 0 
-212.887 -189.144 0 
-235.574 -158.272 0 
-178.154 -154.103 0 
-241.923 -169.206 0 
-173.295 -22.1315 0 
-215.346 -195.348 0 
-227.331 -171.328 0 
-215.789 9.1758 0 
-172.812 106.982 0 
-239.663 -197.18 0 
-158.581 -176.669 0 
-226.599 -182.49 0 
-176.867 -180.83 0 
-237.646 -158.722 0 
-183.226 -116.911 0 
-228.182 -178.186 0 
-173.737 -157.426 0 
-253.158 -147.368 0 
-161.913 11.764 0 
-205.912 -143.302 0 
-152.461 -144.876 0 
-159.416 -43.0945 0 
-150.717 -147.233 0 
-208.58 -152.279 0 
-205.07 -184.303 0 
-207.992 -134.355 0 
-225.628 -162.872 0 
-219.869 -152.851 0 
-247.382 -167.42 0 
-202.984 -113.468 0 
-179.749 -124.611 0 
-248.604 -135.097 0 
-214.453 -166.965 0 
-193.339 -129.587 0 
-173.888 -182.551 0 
-260.731 -164.452 0 
-174.005 -166.645 0 
-203.05 -172.122 0 
-209.74 -105.017 0 
-153.001 -140.22 0 
-230.017 -191.6 0 
-226.361 -157.542 0 
-223.434 -175.562 0 
-254.963 -161.593 0 
-155.512 48.8564 0 
-203.453 -173.905 0 
-184.322 -151.758 0 
-225.55 -177.299 0 
-224.708 -176.234 0 
-167.474 56.3769 0 
-195.497 -129.084 0 
-185.786 -133.742 0 
-226.512 -140.162 0 
-261.627 -151.652 0 
-166.82 -150.904 0 
-208.074 -111.903 0 
-226.132 -117.338 0 
-187.685 -107 0 
-212.512 -140.07 0 
-241.544 -123.962 0 
-201.276 -118.659 0 
-182.399 -150.539 0 
-225.109 -150.31 0 
-183.438 -168.761 0 
-145.638 -136.952 0 
-159.941 40.7061 0 
-148.379 19.0871 0 
-187.401 -7.39258 0 
-209.174 -139.482 0 
-192.541 -147.453 0 
-214.315 -134.216 0 
-173.765 -35.3627 0 
-249.995 -127.86 0 
-219.364 -102.783 0 
-195.972 -107.385 0 
-213.474 -106.374 0 
-194.928 -104.547 0 
-181.896 -17.5933 0 
-167.237 -131.31 0 
-170.404 -137.089 0 
-180.378 -114.549 0 
-217.458 -89.6283 0 
-198.428 -109.293 0 
-221.223 -110.401 0 
-191.221 -123.594 0 
-196.043 -85.0914 0 
-224.513 -118.707 0 
-157.219 35.2052 0 
-186.862 -120.085 0 
-210.516 -130.553 0 
-201.699 -123.42 0 
-219.817 -72.9054 0 
-213.962 -70.5131 0 
-164.759 -131.703 0 
-173.962 -121.781 0 
-141.658 -137.089 0 
-205.927 -82.8962 0 
-202.875 -131.027 0 
-204.787 -129.911 0 
-199.35 -108.499 0 
-252.141 -101.492 0 
-207.409 -127.886 0 
-192.971 -121.832 0 
-204.978 -125.287 0 
-215.654 -124.688 0 
-194.936 -132.023 0 
-190.653 -111.752 0 
-232.499 -87.6962 0 
-230.163 -85.7812 0 
-219.027 -101.495 0 
-188.167 -73.492 0 
-227.605 -99.6503 0 
-171.496 6.04754 0 
-214.566 -139.843 0 
-219.42 -76.1888 0 
-184.006 -68.4578 0 
-225.765 -106.082 0 
-159.721 -67.1646 0 
-166.353 -128.801 0 
-219.493 -115.676 0 
-205.691 -111.514 0 
-201.2 -100.968 0 
-187.03 -111.08 0 
-201.812 -115.917 0 
-241.35 -96.4202 0 
-182.347 -139.624 0 
-155.95 30.4479 0 
-166.431 -71.2747 0 
-182.222 -69.0689 0 
-218.094 -223.89 0 
-225.586 -86.9942 0 
-234.379 -81.4229 0 
-211.262 -81.1479 0 
-209.223 -49.501 0 
-213.265 -70.3117 0 
-192.038 -80.8133 0 
-194.135 -124.136 0 
-210.643 -99.3791 0 
-192.411 -88.2459 0 
-238.262 -84.2798 0 
-243.553 -123.571 0 
-179.897 -97.1141 0 
-193.254 -133.147 0 
-210.452 -67.8233 0 
-188.793 -135.689 0 
-204.795 -114.68 0 
-207.433 -94.3363 0 
-243.516 -74.5418 0 
-189.345 -58.979 0 
-215.932 -95.6637 0 
-197.836 -91.3605 0 
-224.286 -148.769 0 
-176.569 -102.324 0 
-143.312 -95.1163 0 
-174.884 -87.2271 0 
-213.729 -93.4441 0 
-184.083 -106.234 0 
-211.379 -93.8653 0 
-158.493 -109.043 0 
-251.879 -201.109 0 
-195.415 -214.928 0 
-226.256 -232.107 0 
-204.464 -113.519 0 
-143.765 -84.1784 0 
-192.752 -69.8834 0 
-222.632 -57.0096 0 
-139.359 71.5277 0 
-152.463 -94.8117 0 
-176.739 -61.7589 0 
-242.132 -78.305 0 
-224.587 -106.269 0 
-179.913 -75.6474 0 
-162.605 -56.2906 0 
-217.518 -35.9827 0 
-173.161 -90.4346 0 
-174.962 -57.1643 0 
-193.351 -100.081 0 
-187.533 -71.9384 0 
-230.132 -60.2862 0 
-192.073 -92.8448 0 
-200.976 -101.621 0 
-242.45 -81.2598 0 
-180.823 -80.9355 0 
-226.692 -76.4669 0 
-198.86 -208.149 0 
-189.732 -30.25 0 
-198.904 -94.5258 0 
-241.123 -108.237 0 
-236.714 -37.2117 0 
-138.717 34.5731 0 
-182.024 -71.9579 0 
-197.001 -125.799 0 
-149.151 -55.9766 0 
-156.284 -79.3227 0 
-210.414 -202.294 0 
-178.945 -80.5104 0 
-193.214 -54.5246 0 
-197.651 -45.5273 0 
-226.737 -58.0985 0 
-173.027 -99.0744 0 
-219.436 -79.2064 0 
-223.527 -230.073 0 
-187.22 -147.342 0 
-207.724 -175.615 0 
-213.363 -203.852 0 
-232.39 -224.418 0 
-224.623 -60.3302 0 
-159.077 -54.3614 0 
-134.443 -46.0158 0 
-209.802 -196.088 0 
-172.159 -202.503 0 
-180.147 -66.2599 0 
-179.812 -86.5104 0 
-185.434 -75.4021 0 
-182.796 -28.9031 0 
-206.605 -54.2168 0 
-188.415 -57.7632 0 
-136.456 -200.443 0 
-208.312 -46.7096 0 
-154.323 -82.5341 0 
-199.834 -33.4412 0 
-206.114 -179.123 0 
-213.18 -183.37 0 
-217.746 -220.917 0 
-173.956 -225.036 0 
-215.888 -185.653 0 
-162.442 -74.4084 0 
-155.415 -53.5055 0 
-231.262 -262.914 0 
-150.067 -37.5911 0 
-197.911 -45.1558 0 
-228.528 -60.1956 0 
-174.492 -220.723 0 
-193.223 -65.7215 0 
-208.327 -236.523 0 
-205.235 -51.4865 0 
-169.547 -59.1888 0 
-190.234 -195.339 0 
-172.884 -27.5895 0 
-180.984 -193.998 0 
-189.914 -57.6488 0 
-231.058 -217.812 0 
-202.915 -70.994 0 
-170.304 -213.263 0 
-205.064 -195.007 0 
-218.222 -186.668 0 
-141.759 -202.804 0 
-223.33 -186.41 0 
-177.632 -204.149 0 
-179.059 -188.452 0 
-209.088 -5.99973 0 
-156.147 -203.888 0 
-161.76 -199.88 0 
-141.719 -145.141 0 
-211.695 -184.061 0 
-187.478 -70.2826 0 
-223.498 -80.5367 0 
-161.684 77.9427 0 
-198.049 -167.341 0 
-161.193 -62.8087 0 
-176.086 -215.95 0 
-196.046 -89.5427 0 
-211.04 -200.176 0 
-182.314 -179.084 0 
-158.614 -55.5783 0 
-201.529 -45.6583 0 
-172.52 -33.9812 0 
-202.746 -38.2213 0 
-193.908 -52.7457 0 
-152.679 -198.902 0 
-193.9 -193.039 0 
-191.351 -204.63 0 
-194.916 -142.792 0 
-209.595 -163.084 0 
-192.008 -42.3087 0 
-187.899 -209.634 0 
-152.552 -201.465 0 
-168.347 8.2582 0 
-215.408 -52.3732 0 
-211.341 -32.1098 0 
-175.41 -186.676 0 
-169.306 -4.88077 0 
-208.677 -212.529 0 
-156.493 -161.108 0 
-150.293 -179.492 0 
-198.421 -209.349 0 
-203.902 -20.3468 0 
-153.208 -21.7613 0 
-185.228 -188.165 0 
-204.167 -44.6279 0 
-180.616 -185.91 0 
-180.591 -189.974 0 
-236.292 -170.186 0 
-186.866 12.0797 0 
-168.171 -204.851 0 
-180.699 -216.874 0 
-126.618 98.6535 0 
-171.316 -45.1314 0 
-200.071 -175.554 0 
-184.123 -196.105 0 
-189.935 -148.113 0 
-213.629 -204.35 0 
-190.95 -189.21 0 
-209.42 -104.216 0 
-232.028 -162.913 0 
-212.423 -150.065 0 
-189.853 -140.431 0 
-208.554 -177.055 0 
-163.042 -168.32 0 
-227.471 -149.581 0 
-228.399 -191.631 0 
-199.788 -169.838 0 
-203.836 -191.1 0 
-204.741 -213.951 0 
-179.928 -161.274 0 
-176.234 -204.867 0 
-163.238 -7.02893 0 
-250.947 -189.169 0 
-181.76 -38.9987 0 
-143.948 11.7219 0 
-147.43 -205.65 0 
-233.982 -144.573 0 
-184.042 -8.86515 0 
-176.083 -148.916 0 
-229.587 -183.283 0 
-254.142 -205.019 0 
-165.297 -187.563 0 
-165.226 23.1893 0 
-210.07 -150.171 0 
-166.418 55.9164 0 
-186.269 -160.069 0 
-175.161 -182.22 0 
-167.302 -36.9443 0 
-203.878 -196.756 0 
-176.431 -170.358 0 
-211.404 -156.604 0 
-210.699 -3.92092 0 
-170.656 -11.1766 0 
-220.022 -182.332 0 
-151.079 -185.088 0 
-200.624 -183.481 0 
-204.073 -36.7231 0 
-191.696 -164.991 0 
-191.268 -186.02 0 
-175.061 -136.556 0 
-169.848 -164.922 0 
-211.332 -143.849 0 
-182.694 -157.776 0 
-180.415 -181.387 0 
-206.435 -144.218 0 
-210.677 -131.847 0 
-169.141 -164.196 0 
-208.616 -163.91 0 
-218.606 -161.281 0 
-167.893 -146.652 0 
-176.803 -150.421 0 
-187.252 -152.569 0 
-245.454 -146.796 0 
-229.714 -145.897 0 
-184.556 -18.0198 0 
-171.008 -146.27 0 
-237.754 -178.299 0 
-219.658 -166.204 0 
-196.235 -169.102 0 
-165.783 -162.476 0 
-183.472 -158.74 0 
-166.742 -163.014 0 
-184.15 -159.052 0 
-208.924 -137.584 0 
-236.239 -210.141 0 
-181.767 -153.551 0 
-165.793 -141.416 0 
-141.749 -7.74731 0 
-174.206 -63.1394 0 
-108.352 -9.26869 0 
-187.223 -120.091 0 
-160.684 -50.9093 0 
-187.046 -154.905 0 
-154.982 -157.289 0 
-162.176 -4.08397 0 
-197.245 -128.666 0 
-180.081 -177.049 0 
-245.407 -175.986 0 
-176.143 -157.322 0 
-166.473 -159.274 0 
-237.543 -185.345 0 
-191.82 -157.531 0 
-198.453 -161.52 0 
-211.735 -160.297 0 
-220.154 -143.373 0 
-194.217 -118.837 0 
-194.57 -139.856 0 
-201.352 -134.513 0 
-214.965 -127.21 0 
-204.865 -181.355 0 
-223.944 -136.771 0 
-232.443 -150.314 0 
-210.837 -189.685 0 
-213.288 -149.241 0 
-248.711 -160.714 0 
-210.792 -160.597 0 
-193.757 -139.269 0 
-243.125 -170.667 0 
-203.314 -165.041 0 
-191.105 -175.142 0 
-188.312 -146.383 0 
-255.629 -151.882 0 
-255.609 -154.768 0 
-216.9 -158.012 0 
-199.101 -107.152 0 
-166.476 -153.556 0 
-239.86 -180.64 0 