<VTKFile type="UnstructuredGrid" version="0.1" byte_order="BigEndian">
  <UnstructuredGrid>
        <Piece NumberOfPoints="8000" NumberOfCells="0" Time= "0.04">      <Points>
        <DataArray name="Position" type="Float32"  NumberOfComponents= "3"  format="ascii">

114.557 14.2986 0 
114.406 14.7252 0 
114.476 14.8519 0 
114.394 14.5595 0 
114.351 14.799 0 
114.629 14.6906 0 
114.352 14.5865 0 
114.253 14.292 0 
114.668 14.3665 0 
114.446 14.5567 0 
114.218 14.7895 0 
114.602 14.39 0 
114.344 14.553 0 
114.568 14.7083 0 
114.41 14.5407 0 
114.38 14.5515 0 
114.276 14.7661 0 
114.422 14.6936 0 
114.485 16.9202 0 
114.588 16.7235 0 
114.695 16.8774 0 
114.53 16.4969 0 
114.219 16.3493 0 
114.77 16.0455 0 
114.421 16.5253 0 
114.238 16.8228 0 
114.274 16.8202 0 
114.609 16.8964 0 
114.528 16.6017 0 
114.477 16.4718 0 
114.236 15.125 0 
114.469 16.7722 0 
114.217 14.9601 0 
114.389 16.8635 0 
114.405 15.0223 0 
114.297 16.9756 0 
114.288 16.7187 0 
114.417 15.0954 0 
114.231 15.0058 0 
114.276 15.0715 0 
114.719 15.0843 0 
114.224 15.9646 0 
114.396 16.5282 0 
114.282 16.6445 0 
114.718 16.7492 0 
114.272 16.7913 0 
114.554 16.7783 0 
114.237 17.1517 0 
114.299 16.6545 0 
114.562 16.8356 0 
114.29 16.9455 0 
114.638 15.0541 0 
114.377 16.4225 0 
114.481 16.4806 0 
114.451 15.5391 0 
114.77 16.875 0 
114.663 16.367 0 
114.311 16.4717 0 
114.324 16.4022 0 
114.37 16.5969 0 
114.67 14.8821 0 
114.344 17.2316 0 
114.53 15.3361 0 
114.404 16.8875 0 
114.263 17.0184 0 
114.426 15.1161 0 
114.629 16.4434 0 
114.247 16.7488 0 
114.334 16.3571 0 
114.411 16.5702 0 
114.319 16.7838 0 
114.731 15.0841 0 
114.682 15.1072 0 
114.297 16.3508 0 
114.493 16.687 0 
114.641 15.0343 0 
114.723 16.7401 0 
114.768 14.9357 0 
114.361 17.077 0 
114.291 16.6713 0 
114.426 15.5258 0 
114.702 14.8805 0 
114.393 16.4725 0 
114.52 15.4016 0 
114.288 16.2678 0 
114.221 16.3661 0 
114.254 15.9804 0 
114.439 15.5691 0 
114.46 16.5196 0 
114.289 16.6776 0 
114.694 15.2127 0 
114.526 16.9421 0 
114.539 16.6257 0 
114.383 16.5542 0 
114.744 16.5904 0 
114.412 16.4276 0 
114.35 16.5217 0 
114.343 16.793 0 
114.361 16.6858 0 
114.654 16.8892 0 
114.308 16.6791 0 
114.513 16.4757 0 
114.569 15.1377 0 
114.265 15.1298 0 
114.363 19.0224 0 
114.276 19.7044 0 
114.385 19.0076 0 
114.346 19.1547 0 
114.388 19.0259 0 
114.295 17.8405 0 
114.333 19.5907 0 
114.371 19.5546 0 
114.288 19.7395 0 
114.4 19.0484 0 
116.865 14.2354 0 
116.501 14.3156 0 
116.243 14.4125 0 
116.322 14.2104 0 
116.778 14.8463 0 
116.532 14.4762 0 
116.448 14.6401 0 
116.553 14.7018 0 
116.741 14.3684 0 
116.516 14.4208 0 
117.088 14.7828 0 
116.872 14.2954 0 
116.497 14.8055 0 
115.978 14.2033 0 
116.424 14.7586 0 
116.575 14.7829 0 
117.293 14.4808 0 
116.621 14.2836 0 
115.486 14.3135 0 
116.671 14.4766 0 
116.508 14.4284 0 
116.371 14.2623 0 
116.825 14.7563 0 
116.723 14.4391 0 
115.511 14.3215 0 
115.309 14.3649 0 
116.738 14.6309 0 
117.021 14.6895 0 
116.528 14.7985 0 
116.577 14.8561 0 
115.583 14.3614 0 
116.216 14.5327 0 
115.531 14.311 0 
116.729 14.4466 0 
116.442 14.5123 0 
116.476 14.5131 0 
116.306 14.447 0 
116.557 14.7018 0 
116.737 14.7763 0 
117.275 14.3371 0 
116.627 14.5826 0 
116.455 14.368 0 
116.777 14.2628 0 
115.78 14.2615 0 
116.463 14.6438 0 
117.135 14.4576 0 
116.43 14.5722 0 
116.581 14.652 0 
116.245 14.2959 0 
116.54 14.5846 0 
116.55 14.2809 0 
116.239 14.3767 0 
115.437 14.251 0 
116.695 14.7176 0 
115.448 14.2909 0 
116.591 14.8659 0 
115.381 14.4165 0 
116.525 14.7404 0 
115.436 14.2875 0 
116.575 14.7924 0 
116.531 14.5972 0 
116.443 14.6809 0 
116.355 14.689 0 
116.543 14.496 0 
116.599 14.8043 0 
116.747 14.6415 0 
116.353 14.3966 0 
116.745 14.7802 0 
116.968 14.424 0 
116.477 14.727 0 
116.524 14.5242 0 
115.762 14.3452 0 
116.798 14.719 0 
117.027 14.6809 0 
116.827 14.4445 0 
116.602 14.4238 0 
116.536 14.318 0 
116.505 14.2627 0 
116.909 14.4775 0 
116.922 14.5749 0 
116.659 14.484 0 
116.663 14.352 0 
116.717 14.7531 0 
116.629 14.2946 0 
116.814 14.4515 0 
116.387 14.6099 0 
116.252 14.3792 0 
116.662 14.4183 0 
115.693 14.2261 0 
116.582 14.3021 0 
114.906 14.5217 0 
116.531 14.6907 0 
116.498 14.4513 0 
116.407 14.3077 0 
116.74 14.4045 0 
116.991 14.2373 0 
116.885 14.2863 0 
116.886 14.3966 0 
116.497 14.7042 0 
115.422 16.9794 0 
116.597 16.3857 0 
115.836 16.143 0 
116.64 16.5019 0 
115.605 17.2254 0 
117.086 15.1557 0 
116.338 15.9987 0 
116.58 15.1868 0 
116.348 16.6793 0 
116.821 16.5977 0 
115.879 16.454 0 
116.495 15.377 0 
116.584 14.8145 0 
115.686 16.2057 0 
116.377 15.9842 0 
116.58 14.8649 0 
115.047 17.1118 0 
116.777 16.4212 0 
116.061 16.706 0 
116.649 16.5119 0 
116.289 16.442 0 
116.832 15.4031 0 
116.807 15.737 0 
116.65 15.3819 0 
115.167 17.1164 0 
116.847 15.0825 0 
116.367 16.2626 0 
116.287 16.3222 0 
116.366 15.8878 0 
116.109 16.358 0 
116.372 15.2116 0 
116.135 16.5552 0 
115.566 16.2327 0 
115.926 16.1435 0 
116.671 15.543 0 
116.745 15.322 0 
116.549 14.9169 0 
116.85 17.0522 0 
116.638 16.4178 0 
116.569 16.6496 0 
116.391 16.7973 0 
116.627 15.0601 0 
116.348 15.8798 0 
115.867 16.527 0 
116.336 16.6789 0 
116.365 16.1089 0 
116.963 15.2106 0 
115.682 16.2582 0 
116.542 14.9643 0 
116.731 16.4156 0 
116.425 16.0143 0 
116.334 16.491 0 
117.057 16.771 0 
116.158 16.7953 0 
117.124 15.3749 0 
117.012 16.4734 0 
116.363 16.6709 0 
116.008 16.6994 0 
116.332 16.3603 0 
116.825 15.209 0 
116.243 16.7516 0 
116.973 17.2795 0 
115.023 17.1841 0 
115.119 16.4237 0 
115.213 17.0953 0 
116.738 15.438 0 
116.376 15.7839 0 
116.056 17.0467 0 
116.637 16.8013 0 
116.4 16.3002 0 
116.544 15.243 0 
117.021 15.3385 0 
116.156 16.9582 0 
116.268 16.6883 0 
116.665 15.5093 0 
116.345 16.2422 0 
116.959 15.1146 0 
116.747 15.4271 0 
116.408 15.3766 0 
116.692 16.6445 0 
116.403 15.6544 0 
116.998 15.0977 0 
116.177 16.3313 0 
116.971 15.3508 0 
116.622 17.019 0 
115.995 16.3181 0 
116.352 16.6939 0 
116.181 16.5883 0 
116.731 15.6589 0 
116.358 16.2335 0 
116.805 17.1201 0 
115.853 16.1225 0 
116.355 16.0097 0 
115.78 16.3132 0 
116.877 15.2759 0 
116.477 15.2807 0 
116.356 16.3691 0 
116.439 16.4658 0 
117.022 17.0213 0 
116.487 16.615 0 
115.025 17.1743 0 
116.725 16.4678 0 
116.042 16.5152 0 
116.339 16.6701 0 
116.528 16.796 0 
117.36 16.6005 0 
115.633 16.206 0 
116.457 16.6281 0 
117.133 15.318 0 
117.227 15.2724 0 
116.659 16.6869 0 
116.248 16.7998 0 
116.437 16.4602 0 
116.332 16.2375 0 
116.337 16.2032 0 
116.598 16.9204 0 
116.776 15.5945 0 
116.953 17.3566 0 
116.883 16.4695 0 
116.651 16.7141 0 
116.645 15.2431 0 
116.884 17.1882 0 
116.747 16.6453 0 
116.057 16.2964 0 
116.832 15.974 0 
116.324 16.1821 0 
117.131 15.8738 0 
116.871 16.7273 0 
115.899 16.1076 0 
115.96 16.5805 0 
116.354 16.7141 0 
115.149 17.1859 0 
116.171 16.5894 0 
116.767 17.1083 0 
116.425 15.8422 0 
116.325 16.4468 0 
116.166 16.5092 0 
116.71 16.6923 0 
117.082 16.7387 0 
116.4 15.4817 0 
115.745 16.1431 0 
115.624 16.1762 0 
116.414 15.0865 0 
116.753 16.396 0 
116.298 16.2356 0 
116.369 16.0522 0 
115.535 17.2878 0 
116.553 16.5053 0 
116.509 16.5811 0 
116.887 15.1574 0 
115.989 16.6364 0 
116.563 16.9785 0 
116.191 16.5192 0 
116.422 16.4896 0 
116.554 15.3575 0 
116.386 16.1217 0 
115.944 16.7291 0 
116.395 16.2815 0 
116.457 16.5232 0 
116.26 16.5583 0 
116.063 16.9892 0 
116.365 16.0352 0 
115.499 17.2762 0 
116.784 15.5999 0 
116.621 16.5428 0 
116.618 17.1955 0 
116.674 15.3524 0 
116.082 16.3713 0 
116.413 16.4263 0 
116.37 16.7549 0 
116.264 16.7771 0 
116.894 16.4609 0 
116.421 15.451 0 
116.51 16.1866 0 
116.13 16.8649 0 
117.022 16.6493 0 
116.664 16.378 0 
115.943 16.5556 0 
116.955 15.3022 0 
116.242 16.3899 0 
116.124 16.5058 0 
116.511 15.6048 0 
116.32 16.3426 0 
116.236 16.7388 0 
116.293 16.8769 0 
116.294 16.6769 0 
115.944 16.2727 0 
116.137 16.3015 0 
117.187 17.1287 0 
116.44 16.4906 0 
115.988 16.3292 0 
116.349 16.6528 0 
116.386 15.8711 0 
116.574 14.8839 0 
116.581 15.9344 0 
116.788 16.587 0 
116.74 14.8722 0 
115.468 16.9643 0 
116.25 16.79 0 
116.787 16.5589 0 
116.361 16.6609 0 
115.638 16.4219 0 
116.348 16.3668 0 
116.33 16.3833 0 
117.159 14.9937 0 
116.405 16.7639 0 
116.291 15.6065 0 
114.895 16.5776 0 
116.643 16.5715 0 
116.345 16.472 0 
116.837 15.7359 0 
115.405 16.2007 0 
115.913 16.4356 0 
116.44 16.5965 0 
116.137 17.2039 0 
115.872 16.1496 0 
115.138 17.2453 0 
115.376 16.1631 0 
117.001 15.2696 0 
116.339 16.2906 0 
116.669 16.6636 0 
116.984 17.2888 0 
116.444 16.7758 0 
116.894 17.1272 0 
116.379 16.076 0 
116.317 16.5921 0 
116.791 15.0107 0 
116.466 16.5157 0 
116.896 16.4795 0 
115.787 16.336 0 
116.343 16.0214 0 
116.432 16.3227 0 
115.552 17.1669 0 
116.313 16.264 0 
115.984 16.6812 0 
115.449 17.1546 0 
116.531 16.3768 0 
116.469 16.4685 0 
116.911 17.1135 0 
115.374 17.0013 0 
117.301 16.9674 0 
116.369 15.8947 0 
116.939 16.6622 0 
116.353 16.3634 0 
116.852 16.643 0 
116.881 15.5928 0 
115.518 16.156 0 
116.845 16.4719 0 
116.989 15.4323 0 
116.317 14.9451 0 
116.398 16.4912 0 
116.585 14.895 0 
116.647 15.3394 0 
116.654 15.7867 0 
115.006 16.4136 0 
116.54 16.5936 0 
115.291 17.2318 0 
116.041 16.7759 0 
115.674 16.8152 0 
115.58 16.9074 0 
116.88 16.8974 0 
116.108 16.5952 0 
116.593 16.8953 0 
116.244 17.3136 0 
116.534 16.9121 0 
116.172 16.3739 0 
116.333 15.419 0 
116.264 16.8006 0 
116.567 15.8321 0 
117.134 16.7024 0 
116.377 16.5413 0 
116.408 16.41 0 
115.508 16.1417 0 
116.044 17.0895 0 
116.309 16.3715 0 
117.283 16.5596 0 
116.854 16.3988 0 
116.827 14.9045 0 
116.55 14.9323 0 
116.74 14.8737 0 
116.573 15.1356 0 
117.164 16.8129 0 
116.224 16.428 0 
116.35 15.9804 0 
116.847 16.5414 0 
116.381 16.3771 0 
116.311 16.3555 0 
117 15.0479 0 
116.212 16.5675 0 
116.4 16.3226 0 
116.742 16.5785 0 
115.712 16.295 0 
115.266 17.2972 0 
116.481 15.8884 0 
116.75 16.3654 0 
116.563 16.7265 0 
115.938 16.4891 0 
116.156 16.493 0 
115.313 17.103 0 
116.74 15.5867 0 
115.065 17.2501 0 
115.883 16.1272 0 
116.457 16.7861 0 
116.23 16.3538 0 
116.521 16.3822 0 
[...]
      <PointData Vectors="vector">
        <DataArray type="Float32" Name="Velocity" NumberOfComponents="3" format="ascii">

-31.8524 -39.873 0 
-35.5209 -29.7224 0 
-35.613 -29.5558 0 
-39.8368 -29.9486 0 
-36.4671 -29.6671 0 
-34.9063 -29.9511 0 
-39.8215 -25 0 
-32.8982 -29.8631 0 
-39.868 -39.9486 0 
-27.1851 -35.3754 0 
-33.9095 -28.8924 0 
-39.8412 -29.9701 0 
-36.9628 -34.9941 0 
-39.913 -25.1876 0 
-35.3957 -29.884 0 
-39.8341 -25 0 
-40 -27.1173 0 
-37.3925 -29.5171 0 
-39.9172 -25.383 0 
-25.6407 -25.1024 0 
-34.2747 -29.7448 0 
-34.9279 -29.9713 0 
-36.1068 -29.5343 0 
-39.4204 21.7329 0 
-35.98 8.32691 0 
-39.6716 10.9853 0 
-37.2115 -4.83307 0 
-39.8535 -11.6796 0 
-32.6695 -36.767 0 
-39.9268 -24.9452 0 
-39.7911 -28.2343 0 
-39.3516 13.1521 0 
-39.825 19.1757 0 
-34.8525 -0.970269 0 
-38.3422 -39.9675 0 
-39.8995 -12.0695 0 
-39.7639 -29.8948 0 
-39.2436 -38.1159 0 
-39.8733 24.8486 0 
-34.8567 -29.9205 0 
-39.7797 -39.8916 0 
-39.618 3.39541 0 
-34.811 -29.8854 0 
-39.8155 -29.9402 0 
-34.8334 -29.9144 0 
-36.6416 -28.7801 0 
-39.6986 -33.0574 0 
-39.9297 -14.9679 0 
-39.8764 -9.2463 0 
-39.5267 1.24631 0 
-39.8214 -25.8588 0 
-38.4591 -0.007039 0 
-39.7695 -38.3432 0 
-39.8393 -24.919 0 
-39.8166 13.8133 0 
-39.7879 -39.8951 0 
-35.7208 -29.2621 0 
-32.9725 5.98115 0 
-39.8997 1.62666 0 
-39.9017 -14.9818 0 
-25.2206 0.0346193 0 
-39.6806 8.82055 0 
-37.5905 -14.8384 0 
-39.8509 1.01927 0 
-39.8587 -3.38801 0 
-39.2777 7.71196 0 
-39.8756 -39.4453 0 
-34.6714 -9.98474 0 
-39.8763 25.1075 0 
-39.7817 -39.8959 0 
-34.7918 -29.8751 0 
-36.8932 -24.8968 0 
-39.5627 0.828087 0 
-39.8761 -3.16753 0 
-39.8891 10.5201 0 
-39.8599 -27.0203 0 
-37.0151 -28.6088 0 
-35.5259 -29.5021 0 
-39.8585 -4.18439 0 
-39.8903 20.5137 0 
-36.1118 -28.9404 0 
-39.9075 29.8647 0 
-39.8704 -39.9175 0 
-39.8206 -24.9385 0 
-25.1101 0.580521 0 
-39.8943 4.18919 0 
-29.8725 -6.52728 0 
-39.8699 -4.23784 0 
-39.8424 -13.5365 0 
-39.3958 -37.2136 0 
-25.2744 1.1485 0 
-39.9215 -25.0531 0 
-39.8451 11.4549 0 
-35.0457 -21.7319 0 
-39.3189 6.57284 0 
-38.0351 8.01352 0 
-39.833 -5.98622 0 
-36.1491 -1.59186 0 
-30.9155 3.65587 0 
-39.8992 4.18999 0 
-39.3398 -3.99237 0 
-39.1404 11.036 0 
-39.8829 -25.3048 0 
-39.7711 15.1966 0 
-39.8642 12.2413 0 
-39.6287 -8.65925 0 
-34.8572 -25.0191 0 
-39.7358 -29.8921 0 
-39.9339 18.7083 0 
-31.5549 -4.61303 0 
-39.9785 -4.9426 0 
-36.4118 -12.2286 0 
-39.975 -4.88219 0 
-39.9779 -10.1389 0 
-39.9116 -0.0906119 0 
-39.7953 -0.498006 0 
-39.8485 39.9343 0 
-39.9409 18.2035 0 
-39.9385 21.493 0 
-39.9397 17.2938 0 
-39.8203 -19.904 0 
-39.9204 39.932 0 
-30.6055 1.21535 0 
-39.9727 -4.87544 0 
-39.9422 39.9475 0 
-39.8536 39.9341 0 
-39.9557 25.7498 0 
1.19844 -39.9244 0 
-39.9303 -39.8349 0 
-9.6885 -39.8445 0 
36.0661 -39.7384 0 
11.4027 -34.7075 0 
-39.926 -39.8346 0 
8.86298 -40 0 
-29.7845 -39.7025 0 
-39.8104 -39.84 0 
0.259296 -20.6554 0 
9.14278 -39.9636 0 
-37.33 -34.5603 0 
-39.8796 -39.8311 0 
11.9862 -34.1579 0 
35.1596 -39.8355 0 
-3.68881 -39.9112 0 
19.5024 -39.9789 0 
-39.8348 -22.025 0 
-39.8092 -39.817 0 
40 -40 0 
39.9334 -39.9833 0 
3.35376 -39.9869 0 
-34.7921 -36.6665 0 
-1.1084 -35.6634 0 
-39.8924 -39.8379 0 
-3.74471 -39.7988 0 
-31.0798 -36.0404 0 
-7.12681 -37.6798 0 
-39.7912 -39.899 0 
-30.743 -39.8287 0 
10.6761 -24.4989 0 
-39.747 -39.5326 0 
-39.6606 -39.8846 0 
-14.086 -36.4415 0 
-3.15348 -35.6101 0 
10.1303 -24.9701 0 
-39.8624 -19.3739 0 
-35.2854 -28.6924 0 
-36.9298 -26.2323 0 
-18.8213 -39.8454 0 
-11.9709 -36.8312 0 
-32.8582 -36.3016 0 
-39.7465 -39.3602 0 
-39.4418 -38.2305 0 
-39.7218 -36.7823 0 
-39.7138 -39.9177 0 
-18.2755 -39.4173 0 
35.0036 -39.8158 0 
35.0461 -35 0 
-39.9198 -39.8419 0 
27.0009 -39.1829 0 
-38.2639 -39.9488 0 
-39.8482 -39.9282 0 
-39.8307 -39.8756 0 
-37.5494 -39.9428 0 
-5.62676 -40 0 
37.0105 -39.9952 0 
-39.8957 -39.8441 0 
36.1962 -39.9999 0 
-39.7075 -27.5368 0 
-28.9502 -39.7521 0 
39.0654 -39.8775 0 
-8.61409 -37.3262 0 
-39.8194 -39.9077 0 
35.0604 -34.9795 0 
-39.9931 -15.1016 0 
-23.0871 -39.5916 0 
-17.7292 -35.1944 0 
29.6956 -35.2697 0 
-14.1849 -35.4992 0 
-37.6041 -24.5907 0 
-23.5342 -38.3587 0 
-1.6976 -37.2682 0 
-35.5023 -35.4248 0 
-4.55005 -26.7926 0 
-38.6635 -26.1482 0 
-36.2656 -27.3516 0 
35.003 -39.9217 0 
-34.9745 -34.7369 0 
20.5063 -24.9356 0 
11.9916 -34.2829 0 
35.0608 -34.9794 0 
-27.8644 -37.3586 0 
27.4072 -39.968 0 
3.22743 -35.0432 0 
10.3101 -24.9588 0 
-39.1964 -39.8406 0 
-39.1571 -39.926 0 
33.57 -35 0 
-39.8361 -39.8154 0 
39.9377 -39.9898 0 
-14.9241 -38.3786 0 
-15.9657 -40 0 
18.6297 -25 0 
-39.8679 -20.0031 0 
-39.7926 -39.8242 0 
-3.66315 -39.6245 0 
-2.69588 -26.6191 0 
-39.8142 -39.9074 0 
-8.73799 -39.8228 0 
-39.9893 -31.6161 0 
-39.8331 -35.0017 0 
22.5871 -24.7845 0 
16.5133 -39.4557 0 
-1.41312 -39.7014 0 
35.0094 -35.0005 0 
-39.8078 -39.8896 0 
5.04118 -38.6147 0 
-35.8983 -38.6291 0 
-38.8183 -39.9437 0 
-22.2323 -39.5939 0 
-7.84458 -39.6657 0 
-35.6923 -28.7565 0 
17.3974 -40 0 
-39.8043 -39.8968 0 
-38.9506 -28.6556 0 
40 -40 0 
-16.1043 -39.3841 0 
-39.8574 -39.8298 0 
-39.84 -39.8975 0 
-0.804283 -35.9597 0 
-39.6763 -39.9268 0 
35.0594 -36.848 0 
-3.42165 -39.969 0 
9.06513 -39.8957 0 
19.3781 -24.8942 0 
17.5301 -24.5237 0 
-39.8141 -39.8175 0 
-39.8466 -39.84 0 
-7.35208 -37.0303 0 
-39.6099 -39.9211 0 
-18.8312 -39.9742 0 
-34.527 0.022689 0 
-24.8576 -34.1962 0 
19.6538 -7.76553 0 
-4.54021 -39.9942 0 
-39.9669 -8.64137 0 
-4.87167 7.00321 0 
-24.0733 -30.7375 0 
-0.00482512 -14.8202 0 
29.0265 16.4049 0 
24.9317 11.5928 0 
-17.2883 -31.9785 0 
-24.9344 -13.1598 0 
-27.3326 -38.3918 0 
-7.47668 -8.36234 0 
-39.9888 -39.996 0 
-31.0245 -39.9745 0 
-39.715 3.22834 0 
-30.0137 -31.6029 0 
20.1488 -6.74901 0 
-11.7855 -39.6525 0 
-34.2235 3.41082 0 
-24.998 0.142842 0 
-25.6136 -24.2149 0 
-30.7903 -39.977 0 
21.9971 -24.5209 0 
10.5497 -13.9245 0 
6.6395 -21.6708 0 
-6.82242 19.7038 0 
-2.97695 -17.0065 0 
-24.7819 -19.9331 0 
-28.8511 -25.2209 0 
-23.5962 -22.1474 0 
-33.5708 -36.9214 0 
4.58159 -28.1615 0 
-38.248 -25.8513 0 
9.80271 -17.7115 0 
-34.8523 0.00246445 0 
-35.4773 -29.5327 0 
2.54094 4.49458 0 
39.3619 -35.6875 0 
-14.9381 -1.18848 0 
-35.5079 -34.2481 0 
-19.8911 3.22615 0 
-0.564379 18.0737 0 
-39.6289 -3.46289 0 
-29.6596 -16.7013 0 
-37.994 0.124981 0 
3.68673 -1.70072 0 
11.9809 -12.3953 0 
-39.5754 -29.7441 0 
-25.4086 -36.9925 0 
-39.9605 -29.6271 0 
-39.0413 -27.4771 0 
9.78367 -40 0 
-32.2587 -21.3895 0 
-13.4133 -29.7728 0 
-39.0703 -24.9427 0 
3.86669 -1.20238 0 
25.1629 -28.332 0 
-32.3032 -39.9733 0 
-31.1795 -4.04444 0 
-22.9933 -39.9696 0 
-34.3248 -0.109272 0 
0.366296 7.74851 0 
-27.3819 -39.8439 0 
-39.76 -30.0392 0 
-26.0704 -36.8692 0 
-31.2543 -5.85109 0 
-39.9993 -28.2762 0 
-36.4642 7.40873 0 
29.8378 -40 0 
3.19943 -5.15287 0 
4.3679 -26.9857 0 
-15.2781 -10.8429 0 
-39.6738 -17.6045 0 
-26.0423 -3.26239 0 
4.80265 -6.37363 0 
14.4425 -3.90173 0 
2.93535 5.16669 0 
-39.7134 -17.9112 0 
0.611383 -14.5441 0 
-35.2195 -25.1674 0 
-3.99882 -38.7093 0 
-16.3765 -39.3506 0 
1.21973 -5.58311 0 
-6.14507 -35.716 0 
-24.9985 -1.72135 0 
-5.48345 2.046 0 
-34.4481 -29.9309 0 
-30.5336 -32.898 0 
-14.7856 -14.2284 0 
-26.9367 -39.3885 0 
-34.7106 -1.11316 0 
-31.6965 23.5441 0 
-24.8556 -8.90413 0 
24.9893 -29.1783 0 
31.2416 -39.6847 0 
-31.2189 -12.5133 0 
-38.8851 -24.9899 0 
20.5271 -36.9754 0 
-31.3517 -39.9709 0 
-37.6001 4.98671 0 
0.0525833 -13.4918 0 
29.3974 16.6765 0 
-39.525 20.431 0 
-22.6349 14.2177 0 
-23.0702 -24.693 0 
-34.9556 -35.6738 0 
18.8811 -36.0979 0 
-39.9686 -28.03 0 
-39.96 -34.6324 0 
37.5514 15.521 0 
8.97515 3.67862 0 
-30.6712 -14.5138 0 
-3.00474 16.3562 0 
-4.92258 9.99793 0 
-33.9739 -37.0705 0 
11.867 -18.4187 0 
21.2718 -28.4807 0 
-38.1577 -34.1161 0 
22.1133 5.71281 0 
-35.4361 -4.58518 0 
19.409 -26.805 0 
28.7361 15.2831 0 
7.45348 -39.51 0 
9.4109 -12.4531 0 
-4.88124 20.566 0 
-33.7329 -28.6414 0 
-39.1003 21.0156 0 
-28.8897 -25.208 0 
-34.8809 -22.3164 0 
-29.3753 0.0135005 0 
-31.1659 -39.976 0 
-34.3859 -25.6874 0 
-32.4024 -30.6216 0 
-1.70263 -23.6691 0 
-25.0315 -29.4994 0 
-2.5306 -34.982 0 
34.8109 16.0595 0 
-39.581 -29.3382 0 
-24.9314 -9.52871 0 
-26.1641 -30.4785 0 
-19.6744 -37.9532 0 
-24.777 -25.5573 0 
-39.6748 0.218597 0 
8.60396 -12.1682 0 
-11.1561 11.1361 0 
-5.42766 -39.972 0 
26.3429 -35.1262 0 
-34.7461 -29.797 0 
-39.0602 -18.4406 0 
-20.6203 -35.3358 0 
-30.2182 -39.6172 0 
-2.12983 -35.0256 0 
-30.6755 -34.5077 0 
-27.7568 -15.8562 0 
-8.19477 11.8473 0 
-27.1996 -36.596 0 
11.0443 -13.5086 0 
-34.7406 -33.4574 0 
32.0494 -35.1543 0 
-35.3535 -37.7011 0 
-14.9715 -14.5295 0 
-4.97695 -39.9326 0 
17.0559 -33.34 0 
-34.6211 -5.59336 0 
-4.23484 -37.5086 0 
-36.8062 0.961364 0 
30.1348 -39.8094 0 
-27.4605 -38.5306 0 
-32.3307 7.22601 0 
2.13835 0.52822 0 
13.4954 10.3461 0 
-24.9114 -4.97687 0 
6.47643 -39.0249 0 
24.0635 -40 0 
-39.7123 -29.3601 0 
-35.2791 0.0100216 0 
0.509744 -6.66709 0 
-35.6781 -24.9254 0 
28.9626 -39.7527 0 
-32.6672 -34.9168 0 
-24.9909 -16.6604 0 
-4.20218 16.9565 0 
4.34676 -1.98195 0 
-39.7612 -32.5074 0 
39.5029 -39.884 0 
-0.551523 -39.4347 0 
4.9451 -20.2084 0 
-39.5731 -35.3877 0 
-31.7706 -5.51504 0 
-5.42263 -39.5283 0 
-9.99127 -38.6686 0 
-8.28818 2.30491 0 
12.4337 -8.30038 0 
16.8949 4.24729 0 
-11.879 -39.9694 0 
-38.6539 4.95956 0 
-39.8538 -25.9173 0 
20.8134 -39.6658 0 
-13.8787 -22.278 0 
-24.979 -39.2838 0 
-10.4411 -29.8192 0 
-5.94689 -39.9848 0 
-15.0657 18.1569 0 
-35.1402 -19.1075 0 
14.2359 -34.9394 0 
13.1262 -30.0784 0 
-20.0325 -39.3618 0 
-38.9486 -34.6221 0 
-34.755 -34.9471 0 
-39.7062 -28.5058 0 
-35.8643 -36.4178 0 
-32.068 -39.9763 0 
-34.7846 -29.6784 0 
-38.2268 -24.9853 0 
10.1681 -14.1143 0 
-36.1708 15.5873 0 
23.475 -28.0162 0 
-39.6731 9.07481 0 
-35.6358 -29.0469 0 
0.617134 19.584 0 
3.76637 -35.9982 0 
35.0252 -30.4937 0 
-4.64162 -35.0912 0 
-36.9313 -34.1411 0 
-23.4624 -39.5026 0 
-12.0632 -16.8287 0 
-26.9587 -13.9956 0 
-7.02951 -39.9847 0 
-18.8186 -26.125 0 
9.45917 -13.5715 0 
-35.729 -21.7693 0 
-30.7348 -39.9881 0 
-34.495 -35.2062 0 
-34.6929 -1.08489 0 
13.9671 -20.0297 0 
-16.4761 -39.9654 0 
-36.9653 28.0636 0 
-6.71097 -16.2893 0 
-39.8801 -26.7814 0 
-25.0679 -28.6333 0 
-39.8801 -25.3386 0 
-25.0325 -3.63267 0 
-31.9017 -35.7179 0 
-39.617 -5.29389 0 
-35.3004 -33.126 0 
14.6578 -35.0095 0 
-35.5783 2.19698 0 
15.9755 -5.97908 0 
-26.9031 0.519835 0 
20.2982 -36.3777 0 
-18.0685 -39.9609 0 
-30.2912 -34.4876 0 
-10.6015 -39.9771 0 
-25.7086 -39.9809 0 
-39.505 -26.1187 0 
5.50518 -5.58204 0 
-39.608 -32.1859 0 
-23.2504 -35.2841 0 
-39.5676 26.3204 0 
-1.93552 -21.2756 0 
-25.0569 -31.0897 0 
-6.37526 -0.353525 0 
-38.1229 3.5698 0 
10.8095 -27.5918 0 
-39.6118 -27.2881 0 
8.61551 -35.2755 0 
-26.5968 -17.7727 0 
-23.8508 -34.8529 0 
27.2254 -40 0 
-24.8088 -39.6474 0 
-32.8579 20.4895 0 
5.61596 -0.536515 0 
40 -36.7146 0 
-39.409 -25.003 0 
-19.7064 -29.8711 0 
-11.9339 -30.9638 0 
24.2693 12.9188 0 
25.008 -39.6316 0 
37.814 -39.7172 0 
-39.7323 -17.7565 0 
8.71089 -5.56211 0 
-25.6609 -11.7233 0 
-38.337 -16.4682 0 
-15.6313 -17.5671 0 
-36.2088 -39.9895 0 
4.01287 -31.1246 0 
-39.3002 0.185615 0 
20.6357 5.52337 0 
-18.8998 -34.9199 0 
-20.901 -21.4466 0 
-30.6862 -39.983 0 
14.0208 -31.8219 0 
-39.9603 -39.9836 0 
-32.5542 -20.2519 0 
7.26784 4.89007 0 
29.6099 -39.7522 0 
-34.5285 -36.7988 0 
-34.8476 -29.8824 0 
-25.7573 -27.4536 0 
-17.8564 -2.70656 0 
40 -40 0 
-36.9777 -10.8374 0 
-35.3686 11.9777 0 
-39.9755 -27.5719 0 
-21.155 -21.7794 0 
5.54435 -19.7742 0 
-33.9774 -29.3729 0 
35.1082 -28.6697 0 
-2.24589 -2.51626 0 
-25.0984 -28.6911 0 
-11.5194 -38.8403 0 
-36.5972 -24.9539 0 
33.0386 -35.2238 0 
-24.9909 -39.0879 0 
-39.9897 -29.4783 0 
-39.8043 -31.3042 0 
-19.512 -37.9868 0 
-26.275 -9.87258 0 
14.8036 -26.771 0 
-34.5084 10.8495 0 
-39.9854 -15.1056 0 
13.3547 -21.0699 0 
-35.7097 -28.9899 0 
-39.6089 -28.1326 0 
-9.35482 5.77633 0 
-31.2954 -35.8587 0 
22.9254 11.7306 0 
2.20045 -26.5967 0 
-31.5193 -34.831 0 
-35.9438 -21.7429 0 
-26.5258 -19.447 0 
-22.4294 -2.88059 0 
-7.63844 -39.9744 0 
-4.68654 -38.1922 0 
-29.7909 -25.0688 0 
16.8983 -27.9598 0 
14.4401 -21.7429 0 
17.9361 8.79556 0 
24.8775 14.0863 0 
-34.4066 -0.798119 0 
-10.7158 18.1615 0 
10.0036 -14.1613 0 
-6.46265 -13.9099 0 
-19.2241 -22.2019 0 
-29.1204 -37.2204 0 
-25.936 -12.8235 0 
-35.2577 -33.1862 0 
-23.4952 -34.5069 0 
30.5516 -39.6333 0 
18.8601 11.565 0 
-16.6157 -29.7046 0 
-20.915 -39.9796 0 
-35.5795 6.46045 0 
24.7323 -40 0 
-28.6589 -23.1043 0 
17.7213 -39.6367 0 
2.91712 4.11021 0 
-39.5867 -25.0183 0 
-34.0722 -26.1794 0 
-28.7221 -28.002 0 
-24.9858 -15.0503 0 
-34.7874 -25.9838 0 
-35.1408 -36.4055 0 
-24.7233 -13.7655 0 
-39.469 -29.998 0 
-28.2325 -39.163 0 
-35.198 -24.9318 0 
-30.2309 -39.9788 0 
-39.7833 -4.42153 0 
29.3444 -39.023 0 
-34.265 -29.1737 0 
20.226 -35.0327 0 
-35.3725 -36.0277 0 
-16.5243 -4.5096 0 
-17.3691 -29.8767 0 
-39.1946 -24.9638 0 
24.8333 -39.7248 0 
-24.7879 -19.9319 0 
27.9858 -39.7051 0 
-39.5857 -7.35526 0 
-34.5532 -13.5881 0 
-2.81584 21.3461 0 
5.20555 -26.9585 0 
39.4937 -38.7982 0 
15.4199 10.6686 0 
-22.4015 -22.9123 0 
-39.9893 -35.2062 0 
-9.6493 -23.4593 0 
14.32 1.60432 0 
-1.25017 -18.5346 0 
-35.3799 -24.9229 0 
-29.3843 -34.9271 0 
-34.8736 -4.88629 0 
-39.7753 -35.3004 0 
-39.4313 -25.0011 0 
-5.43514 -36.9409 0 
-39.0743 -9.14558 0 
14.855 -0.873093 0 
6.61443 5.04674 0 
-28.9949 -25.1717 0 
21.067 -35.1141 0 
-24.9983 -39.4205 0 
-9.10519 4.64458 0 
9.7698 -20.3495 0 
-26.4692 -16.7217 0 
20.0383 -24.6108 0 
37.6307 -35.1765 0 
-7.00767 -39.3614 0 
-15.1306 -37.6902 0 
14.0319 2.87713 0 
-34.7388 -33.5263 0 
-34.4579 1.6341 0 
-26.9483 -30.0645 0 
-10.0959 -38.7779 0 
19.9056 -38.0633 0 
-29.379 -34.8434 0 
2.11543 2.17201 0 
-22.1335 -38.7783 0 
22.9793 16.9015 0 
-5.09748 -39.9411 0 
-16.7471 25.7493 0 
-34.1078 3.56884 0 
-36.344 -17.6087 0 
29.2764 -39.6529 0 
11.1246 1.83319 0 
-31.1753 -35.1018 0 
31.8043 -39.6195 0 
-28.1457 -39.985 0 
21.368 -28.4373 0 
28.9546 16.3223 0 
-24.8474 -9.22559 0 
-39.6893 -4.79074 0 
4.44289 4.72538 0 
-24.9856 -12.8767 0 
-21.1859 -39.98 0 
20.0842 -37.0161 0 
18.452 -28.0165 0 
-6.68539 0.283863 0 
19.5268 -37.2829 0 
-16.736 21.4736 0 
-38.4401 10.7524 0 
19.7621 -36.7324 0 
-39.4178 -24.9997 0 
-21.5076 -37.9201 0 
30.0029 -39.7732 0 
15.2696 -38.2756 0 
11.9004 -33.6393 0 
3.05129 2.89018 0 
-39.99 -39.9964 0 
-15.4482 -39.6107 0 
-39.5597 -25.0182 0 
-24.9982 -0.431233 0 
-38.5603 -30.0741 0 
19.5573 -13.3376 0 
35.8595 -39.7128 0 
-39.6974 -29.2862 0 
35.6155 -34.9712 0 
-30.6511 -39.9862 0 
-30.4074 -34.9766 0 
20.707 -14.0603 0 
-32.7852 -29.3972 0 
-21.9445 -19.1154 0 
-30.2718 -39.9789 0 
22.2994 -35.9877 0 
-15.7729 11.5593 0 
29.9757 -39.7241 0 
-39.6523 10.1059 0 
-35.3672 -37.1308 0 
-39.7261 5.34663 0 
-14.0771 -39.9088 0 
10.0307 -25.0211 0 
-24.9324 -9.04087 0 
1.87731 -5.90503 0 
-34.5048 -25.7937 0 
7.44501 -19.6476 0 
14.434 6.39488 0 
-21.5026 -12.5897 0 
29.4898 16.7772 0 
-39.6058 -3.61145 0 
-39.6512 32.1337 0 
28.5409 15.926 0 
28.1294 -23.8703 0 
-39.0155 -39.8807 0 
14.9958 -21.9443 0 
-35.4469 -28.8318 0 
0.289595 -16.6835 0 
-5.12994 -39.9751 0 
-39.9507 -23.4327 0 
-35.6425 -33.4372 0 
11.2835 -37.7254 0 
37.1644 -39.8839 0 
-9.61876 -15.5622 0 
3.80349 -5.01632 0 
4.3453 8.44768 0 
38.5265 15.7712 0 
-8.34915 -39.9654 0 
-39.5528 1.8281 0 
14.6385 7.31933 0 
-24.9941 -39.4454 0 
-37.9459 -29.6247 0 
-39.6874 -30.0415 0 
14.9379 -23.5188 0 
-17.1737 -27.2851 0 
-26.096 -15.1161 0 
-26.8791 -31.6396 0 
-20.6437 -26.3022 0 
-8.80197 -35.8842 0 
-39.9632 -23.1903 0 
-32.1221 2.22877 0 
-33.4833 26.4587 0 
-20.4589 7.2021 0 
0.043941 39.9545 0 
-39.606 10.1249 0 
-9.59189 39.9747 0 
-5.69588 39.9713 0 
-34.7625 24.9241 0 
-39.6863 -9.96178 0 
-35.2305 -2.05306 0 
-23.3058 4.99691 0 
-34.8423 34.9999 0 
1.55272 17.1835 0 
-34.9124 32.7675 0 
-34.951 19.2679 0 
-39.9066 39.9764 0 
-0.0541836 39.9648 0 
-34.494 20.0002 0 
-38.5566 -1.41243 0 
-39.5383 19.999 0 
-34.7956 6.34725 0 
-35.6774 3.40743 0 
-39.9729 0.826694 0 
-39.9593 -1.93175 0 
-34.9277 -8.77995 0 
-39.975 5.08178 0 
14.3465 39.9538 0 
-34.5923 20.0052 0 
-16.7393 13.193 0 
-39.9696 5.03004 0 
-34.9609 -30.2433 0 
-34.4895 34.9998 0 
-39.6475 15.3868 0 
-2.10778 -4.99846 0 
-30.8825 -4.99969 0 
-5.6303 33.6949 0 
-34.9 20.2663 0 
-39.9773 -4.94516 0 
-39.9383 39.9641 0 
-39.6646 14.0653 0 
-39.9698 -4.83173 0 
-34.7125 32.649 0 
-5.62122 3.19299 0 
-25.2518 22.6055 0 
0.702505 24.3684 0 
-18.3687 13.8976 0 
-8.26426 4.79585 0 
-24.0071 -4.99976 0 
-34.5474 -4.99654 0 
-38.5145 -2.78807 0 
6.18844 39.9673 0 
-25.0193 1.2486 0 
-2.98249 39.9506 0 
-34.6633 -0.595067 0 
-34.6356 30.3144 0 
-0.0182436 39.9642 0 
-34.6962 30.8035 0 
-5.22929 17.1107 0 
-18.5198 39.4515 0 
-38.6059 4.50764 0 
-34.6527 20.5272 0 
-34.7794 30.0855 0 
-31.5309 4.54369 0 
-34.7387 34.9998 0 
-39.9586 4.00718 0 
14.1463 39.9537 0 
-34.8551 31.1642 0 
-33.1837 19.4405 0 
-34.7586 30.176 0 
-26.9074 23.5007 0 
-39.9656 5.08467 0 
-34.6 20.3022 0 
-39.5281 1.97253 0 
-26.2129 14.2315 0 
-31.7272 39.9781 0 
-30.2675 -4.99986 0 
-30.6848 39.9735 0 
-7.1973 4.69176 0 
-22.6378 5.51536 0 
-38.0862 24.4656 0 
-39.9621 3.98348 0 
-34.9118 39.9773 0 
-29.6215 -26.4373 0 
8.08989 16.006 0 
-34.6889 1.76055 0 
-1.53401 39.9714 0 
-17.0731 15.2035 0 
-34.6661 15.6991 0 
-35.9546 -4.99381 0 
-35.9922 8.20718 0 
-34.7561 16.9607 0 
-31.8456 4.29176 0 
-29.7424 2.14576 0 
-39.9619 5.59828 0 
-35.2053 9.74979 0 
-32.3439 12.7944 0 
-39.6627 29.3962 0 
-34.6038 19.9502 0 
-29.718 7.31516 0 
-34.9139 31.1364 0 
7.15917 17.7828 0 
6.64018 17.3456 0 
-39.118 39.2065 0 
-34.7011 21.0741 0 
-39.9359 39.9654 0 
-30.0208 -0.797021 0 
-34.8513 -8.34373 0 
-26.9824 18.209 0 
-30.222 39.9961 0 
0.0410387 39.9581 0 
-39.5578 19.9904 0 
-34.0204 17.8191 0 
-15.5743 17.2522 0 
-14.1011 -4.99948 0 
0.0355714 39.9596 0 
-29.7691 -6.11895 0 
-34.6576 2.85228 0 
-39.9438 39.9788 0 
-38.4803 6.57459 0 
6.55735 16.9388 0 
-18.9977 14.9391 0 
-29.7269 7.93818 0 
-24.2723 39.9723 0 
-9.91201 9.89034 0 
-34.7198 16.1575 0 
-22.2206 39.9736 0 
-22.499 18.2327 0 
-34.7854 19.9431 0 
-20.7138 6.87496 0 
-39.9407 39.984 0 
-34.7257 7.68032 0 
-23.851 3.58237 0 
-4.88859 18.6354 0 
-39.6751 38.1738 0 
-29.7758 11.7204 0 
-34.5967 19.9593 0 
6.20667 39.9669 0 
-39.9501 39.9859 0 
-39.9139 4.18448 0 
-34.5602 20.0136 0 
-34.5071 19.9522 0 
-18.991 -34.5587 0 
-35.5429 7.17718 0 
-34.7539 30.2683 0 
-34.5227 19.9463 0 
-39.4909 -9.46388 0 
-34.7697 -0.609751 0 
-39.054 39.3866 0 
13.2355 -37.1576 0 
-22.138 39.9742 0 
-34.7148 19.9513 0 
-34.7745 23.6152 0 
-34.6087 19.9403 0 
9.38548 39.9604 0 
-30.5669 19.3326 0 
-34.865 22.1463 0 
-29.7077 9.17611 0 
-38.4135 -3.26625 0 
-39.6659 10.2092 0 
-39.9572 39.9825 0 
-34.8572 27.1361 0 
-34.6302 23.4065 0 
-39.5665 -2.90036 0 
-30.3947 -4.99986 0 
-30.0244 20.9765 0 
-39.9645 -3.56942 0 
-37.5226 22.701 0 
-38.1376 23.6888 0 
-39.9705 -4.85162 0 
-39.6877 2.31526 0 
-32.0028 7.55303 0 
-39.5407 7.43552 0 
-39.145 39.3783 0 
-31.6494 27.4519 0 
-34.7616 -8.01422 0 
-37.161 3.0285 0 
-16.2586 38.8842 0 
2.33087 24.413 0 
-21.6092 17.8306 0 
-39.9726 -6.97649 0 
-39.5752 19.9935 0 
-30.9835 -18.4995 0 
7.63987 39.969 0 
-23.711 19.9329 0 
-34.9106 39.9177 0 
-35.0518 -10.0771 0 
-30.0285 23.7511 0 
-39.5593 38.2146 0 
-39.8016 38.2791 0 
-39.0776 39.2436 0 
-4.64047 13.3883 0 
-25.7149 24.8539 0 
-39.9628 -4.30352 0 
-36.4451 19.9553 0 
-34.0295 16.2117 0 
-36.5122 23.1343 0 
-3.74412 7.25448 0 
-34.5896 39.8057 0 
-39.974 2.30143 0 
-34.8247 25.6198 0 
8.95561 39.9642 0 
-26.6145 13.3718 0 
-35.3958 -9.04047 0 
-39.9627 39.9852 0 
11.2962 -9.04307 0 
-39.7054 -8.24548 0 
-38.5337 16.4407 0 
-39.8183 34.6836 0 
13.4216 -24.3146 0 
-2.2847 -39.6272 0 
-3.16136 -39.978 0 
29.7429 -39.9041 0 
3.59265 -39.9951 0 
-7.94862 -39.9893 0 