<VTKFile type="UnstructuredGrid" version="0.1" byte_order="BigEndian">
  <UnstructuredGrid>
        <Piece NumberOfPoints="8000" NumberOfCells="0" Time= "0.14">      <Points>
        <DataArray name="Position" type="Float32"  NumberOfComponents= "3"  format="ascii">

106.273 11.5119 0 
106.64 12.7505 0 
106.691 12.7581 0 
106.739 13.1803 0 
106.07 13.7474 0 
106.764 16.2701 0 
105.745 19.6475 0 
106.427 17.8609 0 
105.265 18.4512 0 
105.655 19.4898 0 
105.039 20.0177 0 
107.086 19.5908 0 
106.234 19.0267 0 
105.331 20.5998 0 
106.827 22.2695 0 
105.015 20.1842 0 
104.935 20.0517 0 
106.792 20.699 0 
105.33 20.5747 0 
105.734 21.6148 0 
106.641 22.7991 0 
104.43 20.2563 0 
105.216 23.154 0 
106.62 24.6718 0 
105.174 22.9839 0 
106.742 23.5836 0 
105.703 25.2129 0 
106.727 23.9083 0 
106.812 24.9498 0 
106.956 24.3633 0 
106.229 23.1473 0 
105.283 23.9498 0 
105.209 25.6564 0 
106.628 27.3797 0 
106.494 25.9868 0 
104.795 26.6442 0 
106.481 26.587 0 
106.422 26.6484 0 
104.987 25.7796 0 
106.477 27.3037 0 
106.881 26.4963 0 
106.586 29.4523 0 
108.474 6.83889 0 
107.976 6.84416 0 
109.421 6.59282 0 
108.789 6.87065 0 
109.296 6.89756 0 
109.044 6.68261 0 
109.27 6.79904 0 
108.332 6.86914 0 
107.962 6.90136 0 
108.533 6.91317 0 
108.679 6.70643 0 
109.302 6.55446 0 
109.377 7.06644 0 
108.353 7.99524 0 
108.267 7.53535 0 
108.084 7.29353 0 
108.194 7.50144 0 
108.278 7.52879 0 
109.34 7.34589 0 
109.259 8.23759 0 
109.096 7.19028 0 
108.595 8.74157 0 
108.557 8.75481 0 
109.048 8.67292 0 
107.879 7.62981 0 
109.152 8.55099 0 
108.369 7.4229 0 
109.262 8.04965 0 
108.998 7.99924 0 
107.663 9.09433 0 
109.102 8.95528 0 
108.301 10.9506 0 
108.604 10.4504 0 
108.08 11.1975 0 
109.045 10.4487 0 
109.161 11.6678 0 
108.845 10.6304 0 
109.524 10.3579 0 
109.25 10.1633 0 
108.415 11.9745 0 
108.383 10.7387 0 
108.451 11.5251 0 
108.409 11.5718 0 
108.253 10.8939 0 
109.337 9.718 0 
108.399 10.8928 0 
108.752 10.6097 0 
108.664 10.7735 0 
108.88 10.4889 0 
109.509 11.1368 0 
109.499 11.7866 0 
107.695 10.3295 0 
109.345 10.0073 0 
108.822 9.82331 0 
108.419 10.6016 0 
108.156 10.9886 0 
108.791 10.5389 0 
107.714 11.5483 0 
109.442 9.78935 0 
109.155 9.89085 0 
108.111 10.6923 0 
108.937 11.0925 0 
106.987 13.0484 0 
108.93 13.3147 0 
109.442 14.5579 0 
108.003 12.6362 0 
107.186 14.455 0 
108.469 12.4625 0 
107.154 12.8691 0 
108.518 12.7193 0 
109.179 12.483 0 
109.028 12.9417 0 
108.415 14.5742 0 
107.673 12.7968 0 
108.054 12.1659 0 
107.928 12.2191 0 
108.299 12.5933 0 
107.736 12.8639 0 
108.217 14.296 0 
108.503 13.7337 0 
107.771 14.2127 0 
108.052 13.7375 0 
108.958 14.027 0 
107.726 12.7611 0 
106.966 14.426 0 
107.154 12.9799 0 
106.949 12.9593 0 
107.71 13.3882 0 
107.837 12.5232 0 
107.173 12.9339 0 
108.707 14.611 0 
108.036 12.4196 0 
107.851 12.8841 0 
109.488 14.6447 0 
107.956 12.6259 0 
108.1 12.8101 0 
108.009 13.9092 0 
109.143 12.7647 0 
109.035 12.5166 0 
108.652 13.9046 0 
109.354 13.3951 0 
107.133 12.8741 0 
107.722 12.7353 0 
108.254 13.6895 0 
109.516 14.6342 0 
108.444 12.1735 0 
108.507 14.5899 0 
108.124 14.2584 0 
108.246 14.2911 0 
108.564 14.1004 0 
107.808 12.9146 0 
108.537 12.3681 0 
109.4 12.3467 0 
107.8 13.9573 0 
107.995 14.4581 0 
109.516 12.9998 0 
109.056 14.5617 0 
108.688 14.1865 0 
107.6 12.9474 0 
108.397 13.4352 0 
108.253 13.8539 0 
108.988 14.2646 0 
107.597 13.2494 0 
107.586 14.2282 0 
108.903 13.4878 0 
109.416 13.513 0 
108.771 14.7168 0 
108.257 12.6586 0 
107.347 13.802 0 
108.896 13.585 0 
108.369 13.4967 0 
109.109 15.3033 0 
109.046 15.3251 0 
109.156 15.0426 0 
108.453 15.5764 0 
109.35 17.0407 0 
108.91 16.6892 0 
108.874 16.8814 0 
108.926 14.7555 0 
108.824 16.6255 0 
109.068 15.6937 0 
109.067 15.1432 0 
109.434 15.5907 0 
109.021 15.1745 0 
107.973 15.1786 0 
109.482 17.015 0 
108.31 15.8657 0 
108.767 14.822 0 
108.76 15.2097 0 
107.398 14.9534 0 
109.084 15.0867 0 
108.67 17.0528 0 
108.282 15.3802 0 
108.985 15.0988 0 
108.102 15.8466 0 
109.557 14.8733 0 
108.886 15.8013 0 
109.305 16.6049 0 
108.238 15.0308 0 
108.619 15.2648 0 
107.407 15.6178 0 
108.484 15.1819 0 
108.444 15.4268 0 
108.292 15.1437 0 
109.089 16.8836 0 
107.574 15.0399 0 
108.211 15.7312 0 
109.102 16.4967 0 
107.634 16.9498 0 
108.94 19.3703 0 
108.161 19.9608 0 
108.91 19.8327 0 
108.95 18.7981 0 
108.962 19.023 0 
108.442 19.6495 0 
108.928 19.1495 0 
108.805 19.9007 0 
108.554 17.8713 0 
109.02 17.3822 0 
108.823 19.4186 0 
109.025 19.407 0 
108.045 19.3881 0 
109.028 20.0837 0 
107.533 18.86 0 
108.172 19.4454 0 
109.31 19.7759 0 
109.278 19.7951 0 
109.075 22.1566 0 
109.23 21.216 0 
107.885 20.3499 0 
107.638 20.7321 0 
108.643 21.4231 0 
108.551 20.2372 0 
109.37 22.1562 0 
109.275 20.9124 0 
107.804 21.1281 0 
108.395 20.5324 0 
107.363 23.8304 0 
108.081 23.9159 0 
107.586 24.0973 0 
107.585 24.0922 0 
107.726 23.9245 0 
107.414 24.0642 0 
108.324 24.0321 0 
107.133 25.3801 0 
108.309 23.8368 0 
107.631 24.0518 0 
108.242 24.6628 0 
107.623 23.6151 0 
107.799 22.9404 0 
109.427 24.4344 0 
109.158 26.7569 0 
109.272 26.3721 0 
109.457 27.0092 0 
107.044 25.9929 0 
109.301 26.2408 0 
107.169 26.9176 0 
109.569 26.8669 0 
109.069 26.8029 0 
108.549 26.676 0 
109.146 27.0855 0 
107.444 26.2523 0 
109.514 26.403 0 
109.311 26.266 0 
108.983 25.9818 0 
109.058 29.8296 0 
107.716 28.8845 0 
110.032 6.63303 0 
111.601 6.77778 0 
109.953 6.61457 0 
111.47 6.74497 0 
110.771 6.61847 0 
110.324 6.40759 0 
111.894 5.27845 0 
110.347 5.31539 0 
111.039 8.98947 0 
111.464 7.88568 0 
111.049 9.04352 0 
110.369 9.10963 0 
111.301 8.99973 0 
110.08 8.92012 0 
111.079 7.9836 0 
109.826 7.98181 0 
110.052 8.00199 0 
111.818 9.40498 0 
112.049 7.39137 0 
111.969 8.54254 0 
112.13 8.06622 0 
112.096 7.42196 0 
110.623 7.25214 0 
110.071 9.20077 0 
111.05 7.98047 0 
109.54 8.08245 0 
111.392 9.28715 0 
109.918 8.76558 0 
109.503 9.64656 0 
109.637 7.42919 0 
111.37 9.52882 0 
110.418 8.5037 0 
111.889 8.89126 0 
109.724 8.61698 0 
110.187 9.12949 0 
111.669 8.63355 0 
111.836 9.69735 0 
110.895 9.95799 0 
111.071 11.5611 0 
109.653 11.1056 0 
111.137 10.081 0 
111.2 11.5445 0 
110.244 10.532 0 
110.985 11.5591 0 
111.307 10.2803 0 
111.271 10.2571 0 
109.699 10.0965 0 
110.606 10.6098 0 
111.077 10.823 0 
110.9 10.6081 0 
111.048 10.9527 0 
111.069 10.7177 0 
111.902 11.2091 0 
111.385 10.6095 0 
110.223 10.856 0 
110.428 11.5405 0 
110.154 11.2627 0 
110.759 10.8622 0 
110.244 11.8901 0 
110.626 11.4882 0 
110.224 10.722 0 
111.226 11.5509 0 
111.138 10.4453 0 
110.835 11.1671 0 
110.992 11.0263 0 
109.68 9.93255 0 
110.371 11.2357 0 
111.081 11.1238 0 
111.142 10.1056 0 
111.336 10.6412 0 
111.175 10.758 0 
111.669 9.87551 0 
110.657 10.2592 0 
110.715 11.0805 0 
111.264 9.97309 0 
110.981 10.0092 0 
111.709 10.4715 0 
110.957 10.9247 0 
110.574 11.1424 0 
111.135 10.6992 0 
110.808 10.3947 0 
111.879 10.0433 0 
110.228 11.8692 0 
110.852 11.3562 0 
109.507 9.7413 0 
110.358 11.3965 0 
110.845 9.96201 0 
111.131 10.1037 0 
111.695 10.2501 0 
111.18 11.0512 0 
110.99 11.1133 0 
110.933 10.2264 0 
110.246 11.856 0 
110.734 11.6088 0 
111.19 11.462 0 
110.964 11.6033 0 
111.495 10.6085 0 
111.326 11.4655 0 
109.653 11.0804 0 
110.968 10.2743 0 
110.373 10.5359 0 
111.051 10.1982 0 
111.014 11.0644 0 
111.454 10.5201 0 
109.791 11.0245 0 
111.437 10.2705 0 
110.609 11.1416 0 
111.372 10.0533 0 
110.914 10.9995 0 
110.855 10.06 0 
111.97 10.386 0 
111.009 11.1108 0 
110.684 10.9002 0 
109.979 11.213 0 
111.202 11.5432 0 
110.468 10.961 0 
111.176 11.2279 0 
110.982 9.76812 0 
110.391 11.4595 0 
110.956 10.1374 0 
110.539 10.3804 0 
110.468 11.5632 0 
110.19 9.91813 0 
111.785 11.252 0 
111.378 10.8044 0 
111.558 10.625 0 
110.972 10.1011 0 
110.016 11.8176 0 
110.552 10.9787 0 
111.591 10.3733 0 
110.285 10.2295 0 
111.469 10.5262 0 
110.22 10.7224 0 
110.619 10.6671 0 
110.938 9.81589 0 
111.779 10.0786 0 
110.806 10.8912 0 
110.378 11.2801 0 
110.091 10.5234 0 
111.674 11.2709 0 
110.703 10.8891 0 
111.554 10.2771 0 
111.376 10.8906 0 
111.291 12.0875 0 
109.538 12.0559 0 
110.768 9.8738 0 
111.146 11.7287 0 
109.993 14.2009 0 
110.053 12.3632 0 
112.135 14.2484 0 
111.073 14.1563 0 
111.116 14.1554 0 
110.552 13.2414 0 
109.734 14.2614 0 
110.305 14.4196 0 
110.155 12.4259 0 
110.296 13.5183 0 
110.361 14.5597 0 
110.892 13.1761 0 
110.206 13.0213 0 
110.554 13.0788 0 
109.927 12.8197 0 
110.692 12.9127 0 
110.096 12.4606 0 
110.843 14.7804 0 
111.173 13.911 0 
110.077 13.0792 0 
112.08 13.2793 0 
110.093 14.5051 0 
109.806 14.4342 0 
111.118 14.261 0 
111.865 14.5784 0 
112.033 12.6564 0 
109.923 14.5582 0 
109.81 14.3194 0 
110.169 12.3707 0 
110.301 14.3576 0 
109.74 13.5143 0 
110.346 14.7106 0 
111.041 14.5992 0 
110.028 13.1021 0 
111.972 12.8179 0 
109.699 14.5137 0 
110.009 13.8326 0 
112.121 13.0882 0 
111.61 12.9089 0 
111.44 13.6556 0 
111.641 12.9035 0 
110.797 13.8199 0 
111.427 13.6684 0 
110.343 13.0745 0 
110.265 14.2746 0 
111.898 14.2916 0 
109.719 12.9262 0 
110.16 14.6273 0 
109.549 12.9975 0 
110.624 14.6565 0 
111.092 12.4711 0 
110.421 12.5823 0 
109.531 12.988 0 
110.838 14.0966 0 
112.128 13.0259 0 
112.119 12.8812 0 
109.991 13.4646 0 
110.335 14.203 0 
110.596 12.8753 0 
109.535 12.483 0 
111.088 14.1491 0 
110.029 14.4171 0 
110.209 14.1824 0 
109.827 14.3266 0 
110.943 13.4127 0 
110.876 13.2538 0 
110.144 13.2967 0 
110.056 14.4779 0 
111.29 14.1647 0 
109.986 12.6073 0 
111.254 13.702 0 
111.929 13.8375 0 
111.609 12.8837 0 
110.657 17.0084 0 
109.847 15.7526 0 
110.141 17.384 0 
110.796 15.3444 0 
111.639 16.9247 0 
110.768 17.1466 0 
110.558 16.5575 0 
111.056 15.7843 0 
110.833 16.5917 0 
111.134 16.6321 0 
110.593 16.5668 0 
111.421 16.4248 0 
110.826 15.3922 0 
110.798 16.4145 0 
110.23 16.6078 0 
111.89 16.6039 0 
110.345 16.3979 0 
109.919 16.4473 0 
110.288 15.5288 0 
111.47 16.1347 0 
110.986 16.0318 0 
110.54 15.9155 0 
111.417 16.5085 0 
111.451 16.1013 0 
111.274 16.1741 0 
110.481 15.8281 0 
110.543 17.2296 0 
110.414 16.8637 0 
110.827 15.1484 0 
[...]
      <PointData Vectors="vector">
        <DataArray type="Float32" Name="Velocity" NumberOfComponents="3" format="ascii">

-136.533 -21.9024 0 
-124.395 49.9496 0 
-122.872 117.02 0 
-110.017 76.9635 0 
-102.071 -15.0914 0 
-135.776 -61.1068 0 
-105.955 -56.7386 0 
-129.04 -56.4706 0 
-137.32 -62.8208 0 
-117.616 -55.1727 0 
-128.927 -62.3891 0 
-130.945 -58.9926 0 
-126.433 -69.2728 0 
-111.235 -54.0651 0 
-127.321 -62.4354 0 
-136.775 -57.4473 0 
-135.651 -39.5626 0 
-134.99 -73.7526 0 
-102.93 -35.8732 0 
-107.279 -17.3741 0 
-91.6554 -18.8429 0 
-119.509 2.86461 0 
-83.0022 0.408821 0 
-136.674 11.4075 0 
-132.823 7.15008 0 
-80.7816 -4.82215 0 
-83.7185 32.7555 0 
-102.491 10.176 0 
-86.2043 54.4925 0 
-136.428 -23.1841 0 
-108.905 34.2561 0 
-101.96 11.1018 0 
-120.58 16.9509 0 
-123.629 39.424 0 
-96.8922 83.6272 0 
-127.316 39.6651 0 
-100.158 49.5612 0 
-126.105 32.2496 0 
-101.894 50.7113 0 
-101.055 74.1132 0 
-133.911 37.5086 0 
-91.6511 77.5208 0 
-84.9534 67.1512 0 
-112.675 59.8861 0 
-96.1681 86.2176 0 
-89.4187 75.6103 0 
-105.693 104.454 0 
-87.4316 92.2901 0 
-127.192 55.9003 0 
-95.0597 80.1391 0 
-99.0358 96.0627 0 
-87.8213 109.189 0 
-106.859 95.1799 0 
-72.0206 94.7399 0 
-107.188 87.2032 0 
-111.187 101.134 0 
-110.182 -107.704 0 
-106.201 -109.227 0 
-80.303 -105.569 0 
-70.81 -102.315 0 
-107.927 -118.782 0 
-74.6074 -106.314 0 
-96.0919 -107.438 0 
-96.1421 -99.1477 0 
-90.5237 -101.59 0 
-66.0941 -101.763 0 
-78.1925 -109.709 0 
-65.2933 -114.016 0 
-107.037 -109.759 0 
-105.891 -108.268 0 
-105.957 -114.542 0 
-108.895 -98.7654 0 
-78.5619 -107.252 0 
-89.3262 -106.868 0 
-83.4433 -99.6139 0 
-90.1435 -68.2913 0 
-93.9705 -100.853 0 
-67.2923 -63.6415 0 
-93.6475 -101.732 0 
-88.026 -110.128 0 
-103.274 -92.9579 0 
-103.549 -91.5366 0 
-109.902 -60.9393 0 
-107.043 -117.355 0 
-95.4542 -70.5183 0 
-96.7815 -69.0438 0 
-115.924 -131.219 0 
-81.2568 -58.3041 0 
-115.992 -101.079 0 
-100.446 -65.9067 0 
-113.831 -60.6036 0 
-110.444 -77.6408 0 
-72.6046 -60.2661 0 
-101.95 -63.0696 0 
-81.3284 -64.5259 0 
-112.728 -84.0892 0 
-70.2577 -72.7011 0 
-89.4805 -52.3548 0 
-111.895 -120.609 0 
-85.2892 -81.4859 0 
-127.797 -72.9519 0 
-119.097 -84.576 0 
-81.5934 -58.8778 0 
-82.1788 -109.416 0 
-111.576 -90.2913 0 
-90.6279 -67.5666 0 
-92.2272 -69.9211 0 
-119.462 -50.633 0 
-105.12 -34.8399 0 
-67.1151 -44.6031 0 
-129.51 -75.6065 0 
-138.1 -59.8858 0 
-89.3794 -108.296 0 
-120.832 -47.8809 0 
-111.787 -66.8146 0 
-126.958 -77.1043 0 
-113.958 -56.3091 0 
-93.4214 -72.9873 0 
-128.52 -75.3333 0 
-129.831 -65.5671 0 
-76.3084 -42.1866 0 
-122.615 -75.005 0 
-104.471 -72.5045 0 
-137.347 -48.0029 0 
-93.5409 -69.9352 0 
-97.39 -50.2307 0 
-77.7078 -58.2335 0 
-91.6454 -64.366 0 
-138.895 -99.1548 0 
-122.023 -52.3339 0 
-105.475 -73.3767 0 
-119.358 -51.2192 0 
-123.958 -82.5298 0 
-129.188 -65.2177 0 
-91.0129 -52.8203 0 
-96.863 -48.7265 0 
-68.2613 -47.8101 0 
-108.612 -21.0733 0 
-131.758 -64.7485 0 
-105.147 -59.8194 0 
-98.4458 -53.6685 0 
-107.836 -74.8331 0 
-91.7851 -16.0232 0 
-56.9273 -51.2418 0 
-106.187 -52.5739 0 
-136.456 -53.1753 0 
-59.4712 -65.7337 0 
-93.5502 -77.7845 0 
-96.2997 -57.5515 0 
-85.6599 -54.2313 0 
-138.694 -40.4671 0 
-76.45 -45.2071 0 
-108.124 -78.5995 0 
-117.693 -59.8623 0 
-77.2365 -54.6778 0 
-94.857 13.7494 0 
-95.2061 -55.3664 0 
-82.473 -60.6384 0 
-100.671 -69.5301 0 
-109.031 -45.5147 0 
-98.7899 -68.7282 0 
-138.877 -38.3525 0 
-89.8299 -57.6113 0 
-72.8884 -66.9631 0 
-123.263 -47.544 0 
-119.392 -72.3482 0 
-109.672 -64.4892 0 
-108.176 -53.7376 0 
-81.6011 -55.1601 0 
-111.805 -49.6127 0 
-104.713 -56.4836 0 
-85.5654 -60.8542 0 
-138.748 -48.6107 0 
-101.645 -30.9169 0 
-108.712 -43.6715 0 
-94.7124 -23.1538 0 
-104.609 -30.6819 0 
-92.1129 -62.9188 0 
-87.4156 -97.5343 0 
-99.2325 4.9439 0 
-110.982 -39.7543 0 
-107.484 8.59229 0 
-106.139 -56.951 0 
-85.7538 -62.7576 0 
-82.2682 -57.3872 0 
-111.358 -47.1147 0 
-92.6769 11.2457 0 
-96.4362 -45.2905 0 
-112.93 -48.5956 0 
-107.972 8.88103 0 
-83.7261 -57.7473 0 
-97.5476 -49.509 0 
-117.047 -44.7147 0 
-98.7025 -35.8563 0 
-100.137 -66.1154 0 
-89.3946 -30.6387 0 
-70.1407 -61.4809 0 
-93.347 -49.3594 0 
-104.296 -50.0487 0 
-127.742 -34.0397 0 
-106.589 -85.0542 0 
-110.458 -51.372 0 
-96.1211 -68.3535 0 
-111.819 -17.5938 0 
-114.26 -67.0485 0 
-101.075 -88.4568 0 
-62.079 -67.0194 0 
-112.989 -43.6904 0 
-120.512 -52.4842 0 
-87.6383 -24.7464 0 
-96.8126 -39.6888 0 
-130.053 -62.248 0 
-67.6964 -26.3377 0 
-108.985 -23.8795 0 
-90.7788 -35.5698 0 
-112.012 -35.7656 0 
-94.7061 -13.6625 0 
-67.3268 -7.75551 0 
-68.4872 23.3697 0 
-84.4591 -17.1632 0 
-108.581 -21.6672 0 
-108.143 -19.4977 0 
-110.36 16.8067 0 
-88.5755 -6.49383 0 
-121.373 -26.3593 0 
-91.5035 -35.0738 0 
-110.985 -22.8916 0 
-87.9231 -29.6854 0 
-74.8171 10.7195 0 
-81.8129 -29.0697 0 
-115.831 3.06298 0 
-79.2243 -30.2468 0 
-99.0203 -43.3568 0 
-79.7395 2.9164 0 
-115.575 -47.4509 0 
-92.1012 6.3438 0 
-97.7027 6.86161 0 
-113.524 -31.1072 0 
-76.7706 -16.9127 0 
-86.6798 -29.8173 0 
-111.745 2.96651 0 
-113.531 -25.0562 0 
-106.363 3.62155 0 
-93.2364 -33.3693 0 
-116.636 8.54655 0 
-114.009 -42.3582 0 
-71.1697 7.56437 0 
-90.1668 -47.2696 0 
-86.0971 -38.6035 0 
-74.1123 9.58058 0 
-89.2392 -40.4774 0 
-112.244 -24.9051 0 
-106.366 -38.5516 0 
-123.356 -12.0983 0 
-109.561 -44.9299 0 
-93.8233 -0.416047 0 
-104.006 -4.31368 0 
-92.6704 5.06457 0 
-95.1821 -30.138 0 
-118.961 27.2019 0 
-91.8743 18.1935 0 
-121.682 12.1627 0 
-121.217 14.1607 0 
-105.634 12.2628 0 
-121.943 13.995 0 
-112.824 30.7817 0 
-131.876 -5.72181 0 
-112.548 -9.99127 0 
-108.443 43.6131 0 
-111.424 -8.76081 0 
-116.818 -3.72124 0 
-91.0979 1.80083 0 
-95.1332 -33.1013 0 
-101.547 -14.0765 0 
-86.3155 36.9 0 
-93.2434 -31.4084 0 
-97.4583 69.5027 0 
-91.1327 18.4997 0 
-115.855 24.9193 0 
-117.135 27.9389 0 
-107.624 47.819 0 
-58.1303 25.6681 0 
-92.8794 28.2082 0 
-83.6909 73.7784 0 
-117.713 16.6825 0 
-95.4937 50.95 0 
-64.1726 22.0248 0 
-99.9771 43.9048 0 
-57.0991 58.9059 0 
-66.6982 29.3397 0 
-99.7278 24.3977 0 
-61.6191 35.0808 0 
-66.6674 31.5245 0 
-126.206 32.4038 0 
-126.097 32.8153 0 
-111.82 35.3702 0 
-92.0078 22.4154 0 
-85.1853 26.5474 0 
-120.405 32.7514 0 
-86.369 64.5182 0 
-99.5205 75.4764 0 
-84.6192 16.6281 0 
-98.3517 20.4082 0 
-91.5637 92.3496 0 
-73.1591 67.5583 0 
-89.6087 77.4338 0 
-66.7662 67.3876 0 
-78.4795 96.9728 0 
-89.0448 66.3972 0 
-68.3127 24.0503 0 
-74.4796 97.1862 0 
-78.3426 98.4041 0 
-81.3775 98.2755 0 
-94.6064 91.4464 0 
-106.235 89.6935 0 
-78.5543 102.686 0 
-96.9197 104.497 0 
-75.268 98.5127 0 
-69.7947 93.851 0 
-76.0894 72.2602 0 
-88.9854 66.8819 0 
-98.4913 47.4776 0 
-69.1977 113.948 0 
-104.04 83.4706 0 
-67.2666 -89.3837 0 
-60.0284 -109.836 0 
-62.7382 -98.6431 0 
-80.0691 -77.0911 0 
-74.4284 -110.355 0 
-68.7197 -71.7534 0 
-57.6734 -104.466 0 
-60.3025 -102.732 0 
-90.1207 -119.277 0 
-59.3781 -139.093 0 
-34.0537 -126.588 0 
-73.2674 -125.194 0 
-81.8351 -71.3861 0 
-89.707 -59.6043 0 
-105.221 -85.6619 0 
-71.3801 -102.365 0 
-104.803 -85.4447 0 
-105.772 -95.74 0 
-128.664 -63.19 0 
-93.2385 -85.992 0 
-102.796 -112.453 0 
-94.8383 -138.916 0 
-62.7189 -83.7885 0 
-82.3727 -81.6072 0 
-86.1848 -69.1149 0 
-93.9405 -58.7123 0 
-96.0174 -95.5252 0 
-45.0207 -91.761 0 
-91.2047 -56.8937 0 
-108.859 -113.153 0 
-114.181 -105.452 0 
-93.9737 -138.955 0 
-73.5891 -84.5386 0 
-107.437 -63.4401 0 
-108.422 -80.565 0 
-84.8573 -83.2303 0 
-80.445 -120.593 0 
-85.9314 -70.7119 0 
-48.8532 -75.2035 0 
-108.298 -91.4818 0 
-99.9279 -63.0792 0 
-92.9384 -107.674 0 
-74.2847 -91.7407 0 
-82.1584 -49.9349 0 
-92.6115 -30.9118 0 
-71.4222 -78.7716 0 
-93.1958 -96.7523 0 
-73.0275 -92.3405 0 
-76.9338 -81.922 0 
-98.1402 -53.4988 0 
-102.696 -68.9774 0 
-93.9236 -80.7694 0 
-111.848 -60.3805 0 
-113.19 -79.9972 0 
-104.995 -30.0982 0 
-83.2608 -99.2479 0 
-119.286 -76.8075 0 
-83.6414 -62.7376 0 
-60.7958 -94.1625 0 
-62.8321 -73.8763 0 
-100.03 -44.3074 0 
-84.5933 -25.3772 0 
-100.225 -90.9418 0 
-99.4995 -46.6186 0 
-73.8172 -96.2989 0 
-77.1901 -95.6101 0 
-69.9803 -78.3857 0 
-95.1976 -61.5879 0 
-111.671 -34.2377 0 
-82.3055 -49.7843 0 
-74.9853 -77.8975 0 
-81.5935 -68.1445 0 
-99.4763 -58.7339 0 
-59.0744 -70.9502 0 
-97.7409 -47.2931 0 
-96.623 -85.41 0 
-70.7633 -82.3283 0 
-97.8816 -52.7872 0 
-78.6081 -77.0752 0 
-87.3401 -58.785 0 
-91.7492 -85.8091 0 
-86.3029 -94.7083 0 
-76.747 -84.5873 0 
-101.283 -82.0178 0 
-91.5459 -50.4241 0 
-71.3788 -79.7278 0 
-66.3209 -73.0655 0 
-69.5424 -98.9254 0 
-95.977 -32.7472 0 
-69.894 -79.6919 0 
-89.955 -70.384 0 
-93.7893 -48.5756 0 
-83.4677 -79.3687 0 
-88.8968 -57.6418 0 
-57.2394 -71.3769 0 
-90.6994 -59.5815 0 
-66.2412 -73.2809 0 
-72.1015 -94.415 0 
-70.57 -62.0778 0 
-69.2245 -82.315 0 
-77.4828 -90.0239 0 
-96.3619 -91.7157 0 
-65.8963 -79.6368 0 
-106.546 -50.5432 0 
-81.5525 -32.3546 0 
-96.3813 -47.9143 0 
-74.5476 -78.7108 0 
-78.8813 -64.8941 0 
-93.6013 -52.1849 0 
-100.495 -70.2191 0 
-83.6332 -76.2587 0 
-101.991 -57.0246 0 
-90.2103 -57.6688 0 
-68.2136 -50.7988 0 
-78.4375 -33.6821 0 
-100.452 -82.1225 0 
-96.4438 -87.9723 0 
-71.5147 -78.8685 0 
-103.372 -72.8499 0 
-79.8095 -71.1147 0 
-79.3981 -55.1994 0 
-63.8818 -77.5357 0 
-87.1989 -58.0068 0 
-110.769 -68.1839 0 
-56.9513 -68.9867 0 
-86.2766 -70.3915 0 
-84.4724 -51.9224 0 
-73.5091 -62.7575 0 
-94.4374 -47.9367 0 
-71.4391 -62.7655 0 
-95.518 -77.9602 0 
-83.4689 -52.9159 0 
-82.1516 -87.5767 0 
-88.4633 -79.5652 0 
-104.239 -100.682 0 
-70.4581 -78.2211 0 
-64.2381 -77.1859 0 
-70.9969 -79.6014 0 
-122.166 -63.3244 0 
-104.689 -37.5102 0 
-92.4177 -94.1515 0 
-47.445 -71.3602 0 
-99.0556 -87.9591 0 
-79.6176 -86.1993 0 
-70.977 -81.7908 0 
-71.2158 -68.3863 0 
-80.0203 -57.87 0 
-95.4465 -83.4777 0 
-78.4952 -44.7128 0 
-66.3529 -46.2194 0 
-104.432 -71.9267 0 
-79.4823 -64.6633 0 
-104.064 -45.3629 0 
-115.385 -24.8358 0 
-127.495 -52.3471 0 
-71.632 -41.9986 0 
-75.8161 -57.4734 0 
-108.61 -62.0681 0 
-98.6425 -35.6686 0 
-80.3021 -54.5462 0 
-92.8748 -35.9949 0 
-77.5645 -51.4688 0 
-102.315 -3.38998 0 
-88.0724 -44.6143 0 
-101.778 -41.7248 0 
-80.103 -84.828 0 
-63.462 -26.9236 0 
-108.904 -68.4386 0 
-87.0109 -39.1565 0 
-78.7784 -49.7242 0 
-68.1484 -48.1338 0 
-57.2541 -51.9426 0 
-89.7602 -55.1518 0 
-84.9075 -62.9083 0 
-77.4133 -64.6551 0 
-88.4438 -30.6112 0 
-60.6754 -44.1226 0 
-71.8418 -60.3943 0 
-104.12 -47.6635 0 
-48.6348 -59.8807 0 
-54.9297 -44.7348 0 
-105.96 -27.3761 0 
-93.9315 -50.1687 0 
-94.8893 -33.2269 0 
-72.302 -38.0621 0 
-69.6417 -46.9704 0 
-84.1541 -37.1145 0 
-103.11 -27.2412 0 
-96.7208 -57.5248 0 
-74.5309 -54.8335 0 
-79.6101 -53.0386 0 
-96.7295 -24.937 0 
-72.2707 -39.5237 0 
-66.0969 -67.4169 0 
-78.9227 -53.4107 0 
-117.864 -71.0786 0 
-66.247 -72.6303 0 
-70.3716 -40.5772 0 
-51.7172 -44.0032 0 
-68.6678 -53.1661 0 
-82.3835 -58.1765 0 
-74.0533 -57.6185 0 
-71.5483 -61.5599 0 
-67.1507 -44.598 0 
-128.106 -56.4724 0 
-60.9747 -48.2981 0 
-64.2758 -53.0117 0 
-85.9612 -55.8276 0 
-65.2345 -23.5873 0 
-46.9334 -70.5074 0 
-49.4654 -55.6266 0 
-44.5006 -46.9134 0 
-69.8976 -62.928 0 
-67.7085 -47.5075 0 
-62.0351 -56.6683 0 
-107.117 -44.8055 0 
-81.3405 -68.1281 0 
-50.3614 -45.192 0 
-98.4173 -31.8201 0 
-81.3236 -48.2805 0 
-86.1992 -63.7701 0 
-96.814 -45.1893 0 
-78.9074 -53.932 0 
-77.6132 -42.6809 0 
-79.2327 -55.6799 0 
-75.3469 -56.8333 0 
-75.509 -41.8418 0 
-103.625 -71.6814 0 
-79.5145 -58.0004 0 
-108.793 -25.6308 0 
-111.1 -9.18751 0 
-47.8782 -45.6034 0 
-78.5745 -19.2343 0 
-84.3657 13.8301 0 
-55.0859 -5.22361 0 
-91.5171 -36.5201 0 
-78.5326 18.8785 0 
-39.5167 -12.316 0 
-94.366 3.81419 0 
-87.0287 32.0194 0 
-84.72 -7.63922 0 
-59.3301 12.711 0 
-65.4295 -29.1221 0 
-62.7923 -3.35692 0 
-86.5522 -18.4001 0 
-85.0359 -43.6748 0 
-51.822 -18.9421 0 
-85.5246 -20.4182 0 
-63.1847 -16.3502 0 
-100.295 19.8971 0 
-53.5369 -4.63261 0 
-99.0128 -63.9273 0 
-56.2123 -12.0221 0 
-82.758 -14.4823 0 
-74.733 0.714913 0 
-103.711 -16.4043 0 
-104.571 -35.3426 0 
-104.228 -21.6973 0 
-38.5345 -50.1183 0 
-78.2271 25.3727 0 
-76.767 -21.3904 0 
-100.006 12.2074 0 
-66.6397 -46.7482 0 
-53.8095 -47.5147 0 
-96.8961 25.5102 0 
-73.3911 -2.49633 0 
-57.2343 3.72365 0 
-104.458 -37.5722 0 
-93.1342 -19.5074 0 
-60.713 -44.7189 0 
-110.015 -17.8714 0 
-55.5266 -24.8154 0 
-37.4971 -49.4548 0 
-102.152 -37.0189 0 
-43.4028 -52.5887 0 
-71.3167 16.7657 0 
-120.408 -43.8973 0 
-67.7929 12.9506 0 
-59.5582 -5.15281 0 
-62.7142 -48.1236 0 
-94.5614 -25.898 0 
-103.894 -30.3835 0 
-99.2716 -21.9207 0 
-101.106 -25.0166 0 
-55.5855 -45.0611 0 
-95.2769 0.401647 0 
-91.5248 -10.8983 0 
-63.3253 8.60472 0 
-58.0599 -42.3668 0 
-86.6426 19.8992 0 
-63.212 -15.7283 0 
-59.5765 -6.21145 0 
-82.5237 -16.0624 0 
-38.2973 -13.326 0 
-79.6591 -38.1534 0 
-68.0937 -44.5852 0 
-75.0438 -6.58583 0 
-61.7754 -3.22492 0 
-56.0013 -34.589 0 
-86.5174 -23.6476 0 
-81.8452 -25.6929 0 
-99.4889 -19.4989 0 
-97.6322 -29.3688 0 
-87.3582 27.7013 0 
-91.2445 -35.2704 0 
-36.8798 -0.248242 0 
-101.365 -63.8324 0 
-79.5099 5.72942 0 
-83.1993 2.85994 0 
-88.7983 -4.40403 0 
-78.5083 -63.6015 0 
-102.656 -7.81922 0 
-68.7217 -13.7726 0 
-58.6879 -37.7174 0 
-56.534 1.86517 0 
-118.442 -41.3369 0 
-100.619 -23.0254 0 
-109.613 -20.8741 0 
-72.6985 -10.5422 0 
-93.293 -11.4937 0 
-47.168 -15.0918 0 
-53.5488 -38.4454 0 
-56.8547 -18.6842 0 
-70.4595 -41.3326 0 
-76.1582 -7.55661 0 
-37.2344 -0.795471 0 
-88.0841 1.39007 0 
-60.7842 8.75773 0 
-60.1581 -19.5458 0 
-101.876 -23.5215 0 
-64.6311 -48.4904 0 
-98.8583 -16.2532 0 
-83.3392 10.1635 0 
-84.3806 -9.27273 0 
-49.931 -7.95825 0 
-66.5945 -14.0331 0 
-57.8766 8.35937 0 
-64.9013 -49.1773 0 
-106.488 -3.59626 0 
-59.9692 -27.6045 0 
-60.0921 -39.9527 0 
-59.9357 -39.696 0 
-67.4721 -44.1419 0 
-84.5289 -27.988 0 
-99.2469 -66.4656 0 
-76.1908 2.87398 0 
-56.728 -30.9089 0 
-77.3679 -33.149 0 
-50.7641 -15.4212 0 
-76.4228 -53.1437 0 
-59.1291 1.41246 0 
-79.4534 -37.4278 0 
-98.915 21.781 0 
-76.4741 17.1547 0 
-77.2562 5.09653 0 
-91.9285 -25.3393 0 
-54.7166 -1.37585 0 
-54.3181 -1.38339 0 
-75.2519 0.0716627 0 
-55.4908 -7.5683 0 
-56.9781 -13.897 0 
-93.4927 -14.7103 0 
-92.2501 -20.501 0 
-81.1857 1.29314 0 
-61.9794 -17.5236 0 
-79.3485 -0.76499 0 
-91.8983 9.12641 0 
-75.7424 4.10091 0 
-77.7483 -18.684 0 
-98.1338 -42.7453 0 
-68.0834 -33.7915 0 
-53.5679 6.01325 0 
-68.7264 -15.3295 0 
-58.0607 -19.3789 0 
-95.7758 -63.5041 0 
-49.5389 -4.45139 0 
-85.7604 -19.7349 0 
-55.8331 -30.0713 0 
-60.1212 -12.4088 0 
-34.9255 -38.8445 0 
-77.8434 14.9093 0 
-97.7461 -28.9314 0 
-61.675 -16.0672 0 
-87.1285 24.0902 0 
-50.4849 4.10165 0 
-70.6002 8.17206 0 
-84.3379 21.635 0 
-58.6078 6.37861 0 
-87.2073 -54.1768 0 
-38.6006 -3.21865 0 
-111.089 -25.609 0 
-90.9471 -5.29949 0 
-66.559 -0.422447 0 
-55.2001 -27.6103 0 
-66.826 -14.1454 0 
-54.1513 -38.2152 0 
-65.4376 -5.91708 0 
-100.501 -34.1928 0 
-72.3381 -16.1563 0 
-80.3904 -9.14153 0 
-59.5889 -8.5884 0 
-103.168 29.2513 0 
-92.9724 -54.2932 0 
-113.772 -40.1975 0 
-87.6303 -18.919 0 
-98.4601 -63.8679 0 
-54.4831 -9.36127 0 
-69.436 -7.92732 0 
-53.9601 -45.2381 0 
-70.5853 -0.556317 0 
-87.1993 -6.91698 0 
-56.9008 11.1394 0 
-53.3689 -57.2613 0 
-88.8278 -29.4515 0 
-69.1329 17.2336 0 
-71.0338 -4.81429 0 
-75.7089 23.6971 0 
-110.315 -15.4147 0 
-99.4136 -21.5011 0 
-66.3614 -5.82888 0 
-54.1847 11.4397 0 
-60.0569 -41.8905 0 
-77.7486 -22.7238 0 
-55.1974 -15.9462 0 
-85.0057 -18.8698 0 
-110.906 -39.4859 0 
-51.6869 -49.4118 0 
-65.5513 -11.3575 0 
-59.0153 -44.4446 0 
-74.815 -70.1523 0 
-83.1952 -14.7993 0 
-54.9779 0.6878 0 
-56.5669 0.9945 0 
-38.8898 24.8867 0 
-94.7433 -14.6775 0 
-49.7514 -15.0202 0 
-70.1481 3.85411 0 
-100.586 8.41931 0 
-66.2422 4.87266 0 
-69.9872 2.45715 0 
-54.9758 -18.8285 0 
-90.1341 33.6393 0 
-94.6297 -41.7661 0 
-61.0922 -26.9012 0 
-75.2404 7.59442 0 
-90.1275 -51.718 0 
-53.0013 -8.83283 0 
-94.3661 -25.1923 0 
-109.134 2.20774 0 
-65.8678 11.2481 0 
-83.9353 -32.6483 0 
-94.4314 -8.8775 0 
-73.9232 -25.9361 0 
-110.305 2.0144 0 
-71.2413 -12.042 0 
-91.3146 -18.9966 0 
-93.949 1.02296 0 
-109.31 -16.2474 0 
-84.8179 8.05367 0 
-54.702 -8.13588 0 
-83.0316 -33.9513 0 
-78.7253 3.60547 0 
-61.485 -2.36545 0 
-86.8304 52.8058 0 
-91.7366 -9.26952 0 
-96.7719 -14.0517 0 
-69.1184 -1.51255 0 
-104.933 -28.1369 0 
-98.9453 -9.3306 0 
-62.5247 -15.5422 0 
-86.6988 -12.9921 0 
-56.6441 4.45499 0 
-116.644 11.2588 0 
-111.661 41.7036 0 
-66.4282 57.6505 0 
-59.0385 4.5679 0 
-60.2455 18.3783 0 
-69.7063 19.7761 0 
-37.4096 23.6743 0 
-105.608 -14.6893 0 
-81.1166 8.14172 0 
-108.068 49.2554 0 
-106.456 -21.4353 0 
-109.892 -0.105847 0 
-103.845 40.9615 0 
-66.8425 10.709 0 
-109.697 34.9316 0 
-60.5147 1.07917 0 
-50.0721 19.4689 0 
-59.2577 16.9924 0 
-82.0756 22.3737 0 
-88.362 22.8534 0 
-77.9112 7.45784 0 
-85.481 28.1034 0 
-32.2779 57.4544 0 
-90.8245 30.6242 0 
-94.463 46.8918 0 
-103.615 34.2535 0 
-47.9177 49.9241 0 
-107.226 29.8592 0 
-101.363 51.5501 0 
-98.0398 47.0259 0 
-44.4862 49.1413 0 
-88.1094 32.4873 0 
-74.5852 12.1964 0 
-90.1943 34.9351 0 
-101.386 31.4674 0 
-59.1407 59.0896 0 
-81.956 50.3261 0 
-52.1615 33.7549 0 
-85.2703 36.7038 0 
-32.9509 49.0841 0 
-28.8986 47.935 0 
-119.717 16.6766 0 
-102.883 22.0307 0 
-97.4063 60.6722 0 
-97.3427 17.9153 0 
-59.3525 63.8536 0 
-65.0111 49.7249 0 
-103.528 33.2443 0 
-54.3689 60.0286 0 
-40.9083 79.6137 0 
-113.235 58.4376 0 
-55.692 47.5402 0 
-73.5929 57.1469 0 
-46.821 51.6285 0 
-46.1718 54.7854 0 
-17.9751 64.7007 0 
-24.0555 80.9715 0 
-92.8953 57.0008 0 
-80.1694 79.42 0 
-91.1893 62.4919 0 
-36.3798 71.5203 0 
-41.8588 88.2897 0 
-96.7045 67.9006 0 
-45.0072 66.2093 0 
-59.0942 66.0987 0 
-74.0952 82.1332 0 
-71.6476 92.7011 0 
-95.8555 60.0993 0 
-61.1538 55.1463 0 
-74.5413 60.0903 0 
-35.604 48.8389 0 
-44.4777 87.6814 0 
-47.1757 47.5934 0 
-101.123 93.9644 0 
-85.5747 108.734 0 
-72.7185 104.271 0 
-69.2963 91.4286 0 
-88.1699 -91.9414 0 
-131.918 -85.1339 0 
-119.561 -81.8083 0 
-111.373 -96.3734 0 
-94.9168 -94.2127 0 
-114.68 -62.8159 0 
-127.828 -90.5786 0 
-130.551 -82.6114 0 
-116.129 -93.1916 0 
-62.1271 -127.747 0 
-60.69 -98.7084 0 
-46.1039 -92.4839 0 
-38.7803 -119.857 0 
-52.9574 -118.949 0 
-68.2415 -98.019 0 
-41.2906 -93.9119 0 
-46.8691 -98.3515 0 
-115.557 -81.2668 0 
-67.4284 -94.8788 0 
-60.2771 -111.468 0 
-62.4615 -103.171 0 
-41.057 -119.26 0 
-84.8999 -108.235 0 
-77.4284 -128.122 0 
-65.0585 -124.304 0 
-51.1049 -139.075 0 
-45.2574 -109.62 0 
-89.9356 -111.178 0 
-45.7605 -101.527 0 
-102.51 -74.1613 0 
-126.22 -62.0444 0 
-84.2157 -52.45 0 
-117.284 -53.7329 0 
-81.8145 -52.5166 0 
-116.914 -53.0726 0 
-91.6124 -75.515 0 
-85.3902 -70.0929 0 
-118.816 -41.4163 0 
-121.968 -56.5869 0 
-101.478 -119.889 0 
-95.1018 -80.0945 0 
-67.9301 -91.2023 0 
-82.9572 -87.55 0 
-57.2479 -104.468 0 
-83.4677 -49.7098 0 
-55.2396 -75.394 0 
-53.7669 -101.319 0 
-73.2168 -84.3322 0 
-42.6402 -88.3642 0 
-76.5213 -67.9577 0 
-35.876 -90.8488 0 
-34.8994 -62.8593 0 
-95.9168 -98.6676 0 
-71.5556 -100.61 0 
-46.6413 -96.0828 0 
-66.0527 -74.9182 0 
-92.3706 -119.567 0 
-66.3608 -99.017 0 
-53.4756 -92.1839 0 
-75.7018 -78.007 0 
-69.7399 -107.262 0 
-108.456 -114.245 0 
-40.6095 -96.293 0 
-52.0238 -66.594 0 
-56.3354 -88.9933 0 
-35.6406 -93.3116 0 
-48.1794 -93.8386 0 
-93.1237 -110.368 0 
-91.4149 -60.1384 0 
-73.5118 -86.5343 0 
-75.9897 -100.559 0 
-77.2158 -99.3906 0 
-77.2675 -69.0133 0 
-95.8046 -70.3938 0 
-61.4822 -91.0588 0 
-60.8787 -96.4384 0 
-81.2019 -59.509 0 
-98.561 -112.8 0 
-84.4782 -99.9098 0 
-81.4888 -76.9053 0 
-61.9104 -99.4687 0 
-67.5014 -66.0065 0 
-69.4602 -80.6114 0 
-89.0897 -78.0148 0 
-79.2493 -78.4064 0 
-88.7066 -109.732 0 
-107.329 -113.357 0 
-53.7004 -87.1881 0 
-76.5082 -35.2125 0 
-82.5215 -52.5566 0 
-100.337 -81.0333 0 
-78.1533 -89.3619 0 
-90.1463 -70.1473 0 