<VTKFile type="UnstructuredGrid" version="0.1" byte_order="BigEndian">
  <UnstructuredGrid>
        <Piece NumberOfPoints="8000" NumberOfCells="0" Time= "0.3">      <Points>
        <DataArray name="Position" type="Float32"  NumberOfComponents= "3"  format="ascii">

73.2188 30.1514 0 
76.3028 1.3699 0 
74.7343 32.6943 0 
74.2692 35.2167 0 
77.934 0.33835 0 
77.318 15.8494 0 
78.5576 27.225 0 
77.4111 25.5558 0 
77.7962 32.1946 0 
76.6273 33.3031 0 
78.0051 34.7112 0 
77.6829 36.6894 0 
81.3939 1.66694 0 
79.5612 1.71843 0 
79.7021 0.419014 0 
80.7666 3.58423 0 
81.0617 4.50816 0 
81.3565 4.95642 0 
80.3953 6.02125 0 
79.9145 10.259 0 
81.1459 8.88888 0 
81.6194 16.4081 0 
80.693 18.1395 0 
80.5772 24.8022 0 
80.996 28.9392 0 
81.4073 30.8779 0 
81.3948 32.501 0 
80.0828 31.964 0 
79.1124 32.7251 0 
80.4829 33.2846 0 
81.157 33.2366 0 
81.3886 35.8189 0 
79.5922 35.5996 0 
81.356 36.9658 0 
80.5605 35.9228 0 
81.5541 39.7569 0 
83.6736 0.763089 0 
83.4078 0.15723 0 
83.8806 2.56208 0 
83.0409 3.69985 0 
83.1398 3.01934 0 
82.6974 2.51449 0 
81.9052 2.44614 0 
83.672 5.31708 0 
83.5328 6.04096 0 
84.2653 7.06676 0 
83.3643 7.36045 0 
82.5307 5.60367 0 
83.6384 10.1942 0 
83.97 8.00474 0 
83.8108 11.5134 0 
83.7358 9.99438 0 
82.9538 10.5877 0 
82.3259 10.2469 0 
82.9817 11.5133 0 
83.1213 15.5327 0 
83.7389 15.682 0 
83.0607 17.257 0 
82.6273 16.7167 0 
83.0875 21.3536 0 
83.7676 20.9446 0 
83.9308 24.4868 0 
84.1227 23.1521 0 
83.4951 23.892 0 
82.0517 24.9739 0 
83.695 27.2603 0 
82.1126 25.8845 0 
82.822 27.5422 0 
82.9045 28.8291 0 
82.6881 29.566 0 
82.1798 30.0767 0 
83.8231 26.9353 0 
83.936 32.0599 0 
83.2301 31.2694 0 
82.5423 31.8629 0 
84.1526 34.2723 0 
83.0415 34.0874 0 
83.2746 32.6473 0 
82.676 35.587 0 
82.1555 34.716 0 
82.3628 36.658 0 
83.4598 35.9776 0 
81.721 36.0156 0 
82.9709 35.6269 0 
82.9926 37.1124 0 
82.7748 36.0856 0 
83.336 38.5783 0 
83.6485 38.683 0 
83.3799 38.1117 0 
84.6139 2.62164 0 
86.5683 39.7499 0 
86.152 0.478464 0 
85.7767 38.8066 0 
85.1801 0.759153 0 
84.3731 1.84895 0 
86.8262 2.9199 0 
86.4442 0.951508 0 
86.453 1.96518 0 
84.4927 2.25923 0 
85.2298 4.15362 0 
86.1161 4.17329 0 
85.8136 3.90156 0 
86.2329 4.5585 0 
84.9497 2.29685 0 
84.572 3.13189 0 
86.2752 3.43202 0 
85.4318 2.96604 0 
85.7084 4.56566 0 
86.6331 6.11587 0 
84.1534 5.18142 0 
86.2423 6.87089 0 
85.6794 6.27263 0 
86.1229 5.94941 0 
84.8128 4.8058 0 
85.7923 6.22762 0 
85.2259 5.68137 0 
86.5557 4.98515 0 
84.4016 8.73929 0 
85.1873 8.62851 0 
85.844 9.75817 0 
85.9526 8.45931 0 
84.9811 8.52613 0 
84.4245 7.45073 0 
85.0409 9.53774 0 
86.3954 7.64637 0 
84.9611 10.9819 0 
85.6778 10.0067 0 
85.7724 11.9791 0 
85.5502 10.5417 0 
86.2687 11.8151 0 
84.6894 9.91692 0 
86.1788 10.7761 0 
85.8045 10.0853 0 
84.6284 11.6315 0 
85.0992 12.383 0 
85.6799 14.0263 0 
86.472 12.5783 0 
84.6887 14.4198 0 
86.0048 13.4226 0 
85.9049 17.1715 0 
86.0098 15.3684 0 
86.2828 16.829 0 
84.5144 19.4719 0 
85.3384 17.8597 0 
85.5243 21.3541 0 
84.5618 22.2025 0 
85.2466 20.8099 0 
85.6187 23.6805 0 
84.9295 23.4601 0 
84.7211 22.2103 0 
86.7084 24.2835 0 
85.4873 22.3859 0 
85.2734 24.0543 0 
85.5444 23.4967 0 
83.9451 26.6355 0 
85.8789 26.6243 0 
85.4274 25.9784 0 
86.4165 26.7389 0 
86.2744 25.2753 0 
84.9908 27.2832 0 
84.1856 28.4684 0 
85.4524 26.7448 0 
85.8511 28.5603 0 
84.1992 27.1956 0 
86.3187 27.6266 0 
86.2468 27.9554 0 
85.3498 27.8772 0 
85.405 28.7885 0 
86.0767 29.436 0 
85.2235 28.4347 0 
85.0974 27.5152 0 
83.9843 31.5582 0 
85.364 30.7579 0 
85.3884 32.3149 0 
85.947 30.8889 0 
85.1661 32.2282 0 
86.3322 32.4496 0 
86.4722 30.4777 0 
86.5876 30.2672 0 
86.1281 31.5511 0 
86.0283 31.9274 0 
84.3297 29.3833 0 
85.1478 32.5786 0 
85.0216 32.7774 0 
86.1176 34.4445 0 
85.953 33.769 0 
84.8337 33.1477 0 
86.3115 33.8088 0 
85.4996 33.3029 0 
84.0965 34.392 0 
84.4712 35.0623 0 
85.4451 32.8243 0 
86.2358 33.054 0 
85.4859 34.1206 0 
85.5879 35.6652 0 
84.7195 34.8546 0 
85.6794 35.1186 0 
86.3852 34.8931 0 
84.9548 36.2247 0 
85.1768 36.3459 0 
84.3675 36.2701 0 
86.2894 36.1219 0 
85.674 35.8864 0 
85.3205 35.6918 0 
84.5245 34.9986 0 
85.3189 35.4027 0 
85.7224 37.2942 0 
84.5254 36.0064 0 
85.697 39.3286 0 
86.2258 39.4307 0 
86.1314 38.0433 0 
84.8305 38.2529 0 
84.3719 37.4621 0 
84.3495 37.8919 0 
85.8621 37.8471 0 
87.6946 1.87475 0 
88.0676 0.417738 0 
88.5217 1.33662 0 
88.9433 38.6306 0 
86.8446 0.37879 0 
86.8161 38.593 0 
88.357 1.25009 0 
88.4018 0.945471 0 
88.7946 1.19908 0 
87.7297 1.1017 0 
87.5372 1.81184 0 
87.5846 0.899586 0 
87.4813 1.18515 0 
89.0917 0.111177 0 
87.5271 3.92772 0 
87.3737 4.53102 0 
86.8374 2.91595 0 
87.9172 2.06644 0 
86.934 2.40333 0 
86.9563 2.93102 0 
87.9799 4.21709 0 
87.6379 3.80322 0 
88.9637 2.98944 0 
88.5967 2.806 0 
86.9464 4.04391 0 
87.6264 3.13941 0 
88.1922 4.33384 0 
86.6735 5.51037 0 
87.7558 5.89062 0 
86.8846 5.31163 0 
87.2929 6.75342 0 
87.4007 6.9719 0 
86.9987 6.66638 0 
88.0328 6.58774 0 
87.1217 4.79844 0 
87.7374 4.88514 0 
89.1588 7.83405 0 
87.2337 5.95986 0 
87.0837 6.1737 0 
88.9992 7.12515 0 
87.2369 5.83215 0 
89.2097 6.21021 0 
87.5495 6.63083 0 
87.9365 6.35043 0 
88.5702 6.31162 0 
87.2746 5.70948 0 
88.2989 6.33339 0 
89.0352 5.90211 0 
88.5527 8.28687 0 
86.811 7.33725 0 
87.9773 8.09706 0 
87.8341 7.73557 0 
87.6049 7.85053 0 
87.8513 8.96654 0 
88.5222 8.3112 0 
86.8143 9.43008 0 
88.5591 7.43054 0 
87.8768 8.85039 0 
88.3065 7.92984 0 
89.0496 9.7754 0 
89.0228 8.21615 0 
87.7772 7.88977 0 
87.2139 9.61309 0 
88.7365 7.45549 0 
88.078 10.1417 0 
87.7299 10.8944 0 
89.0515 12.6881 0 
87.8131 10.5008 0 
88.6094 10.8877 0 
88.6065 11.6237 0 
87.5744 11.0521 0 
88.1395 11.8124 0 
86.8262 12.3311 0 
86.7411 10.7338 0 
87.5634 14.4417 0 
88.8593 13.803 0 
88.4507 13.2498 0 
88.7166 13.2124 0 
89.1005 12.2784 0 
88.9424 14.1814 0 
88.1939 13.6789 0 
88.8164 12.9846 0 
87.3628 14.465 0 
87.2323 12.1828 0 
87.4636 13.6428 0 
89.0507 15.8379 0 
86.8604 16.9096 0 
88.9995 15.1016 0 
88.9502 15.2483 0 
86.8537 15.8801 0 
88.8541 17.2447 0 
87.6472 15.7253 0 
87.3156 17.077 0 
87.5319 15.4381 0 
88.8552 17.2726 0 
86.5808 15.822 0 
87.2304 15.6949 0 
88.0946 15.2763 0 
88.1624 16.53 0 
87.4515 17.0361 0 
88.7668 18.8033 0 
87.7242 19.5312 0 
88.2869 19.9147 0 
88.3373 17.9326 0 
86.8652 19.1178 0 
86.8062 18.8642 0 
86.8955 18.3647 0 
87.4003 19.429 0 
87.3984 19.7779 0 
88.103 21.2737 0 
88.5 21.8685 0 
87.4953 21.872 0 
88.3277 21.0456 0 
88.1395 22.9425 0 
88.1411 23.2585 0 
86.9706 22.2168 0 
88.3016 21.8496 0 
87.8247 22.0696 0 
87.4379 23.0601 0 
89.0652 22.1575 0 
87.7682 23.723 0 
87.9318 22.7696 0 
87.2658 23.9412 0 
87.7316 23.7983 0 
88.005 22.6364 0 
89.2 24.0955 0 
87.3569 23.4883 0 
87.5026 22.2937 0 
89.0933 23.7322 0 
88.6542 25.9053 0 
88.5349 25.8851 0 
88.4567 24.2384 0 
89.0391 25.7946 0 
89.0363 25.2524 0 
88.7275 25.937 0 
87.53 27.6073 0 
86.8724 25.4182 0 
89.1794 25.298 0 
87.566 26.0746 0 
88.7402 24.262 0 
87.7545 27.2292 0 
88.3571 25.7845 0 
86.9709 24.4488 0 
88.1554 26.8077 0 
89.0492 26.4017 0 
87.4469 28.236 0 
87.3795 27.2581 0 
87.8386 29.1668 0 
88.2415 28.9172 0 
86.7456 27.7498 0 
87.599 28.649 0 
87.016 28.6563 0 
88.5452 27.5148 0 
86.8877 28.8447 0 
88.4605 29.4448 0 
88.0321 28.0507 0 
87.8856 29.0939 0 
89.0657 29.6777 0 
87.1188 26.856 0 
89.2325 30.0106 0 
87.2607 31.3945 0 
88.1323 31.0599 0 
87.8765 31.2743 0 
87.6045 30.5628 0 
88.5532 30.4026 0 
87.985 29.5439 0 
88.348 31.0977 0 
87.5572 31.5199 0 
87.3804 31.4652 0 
87.8903 30.0303 0 
86.9443 32.1528 0 
88.0455 30.9797 0 
87.555 31.3602 0 
88.9633 31.61 0 
87.4497 31.9828 0 
86.8385 29.7444 0 
87.828 31.8218 0 
87.8492 30.1494 0 
87.8897 31.7445 0 
88.5614 30.0896 0 
88.372 34.1278 0 
88.3513 33.8739 0 
88.5518 32.5024 0 
88.989 32.8534 0 
88.6541 33.3835 0 
89.2015 33.8964 0 
87.7371 33.795 0 
87.0837 32.1445 0 
86.7823 33.9214 0 
87.8346 34.3499 0 
86.5029 34.049 0 
89.1892 33.2604 0 
88.4149 32.5397 0 
87.3187 33.3128 0 
88.6914 35.8988 0 
88.5436 35.2561 0 
88.2985 35.2213 0 
88.8275 35.7025 0 
87.7718 36.3953 0 
88.1569 34.906 0 
87.3023 35.3251 0 
88.5835 35.1716 0 
86.926 36.1318 0 
87.6156 35.519 0 
88.6862 36.0324 0 
86.8602 36.496 0 
86.6968 36.0355 0 
88.1474 35.8328 0 
88.3271 34.9295 0 
87.475 36.1391 0 
87.8176 36.5663 0 
87.9673 34.6727 0 
88.3771 34.5128 0 
88.5718 35.9088 0 
86.9476 35.9146 0 
88.106 34.435 0 
87.1539 35.9217 0 
88.0799 38.0688 0 
88.8078 38.2691 0 
88.7576 39.2 0 
88.6349 38.7276 0 
86.8307 38.5801 0 
89.1565 38.7861 0 
87.1358 37.0595 0 
88.5354 37.2603 0 
88.2033 38.2084 0 
87.196 39.6221 0 
88.7586 37.4141 0 
90.5645 0.430506 0 
90.459 1.55604 0 
90.37 1.68017 0 
90.3562 1.18671 0 
90.4051 1.8183 0 
89.47 0.218039 0 
89.3393 0.99915 0 
91.0222 1.55606 0 
90.6901 2.76049 0 
90.941 0.113473 0 
90.8751 1.18886 0 
90.3827 0.599931 0 
90.0818 1.04203 0 
91.1155 1.10586 0 
91.4737 2.00603 0 
91.5071 0.933482 0 
90.248 38.9642 0 
91.0229 2.02028 0 
90.5257 0.320526 0 
90.9787 0.694176 0 
89.3582 0.515538 0 
91.6966 0.156998 0 
90.3484 37.8859 0 
89.2542 1.80592 0 
89.3048 4.39758 0 
91.3781 2.72149 0 
90.7138 2.54273 0 
91.5456 3.93299 0 
90.0964 3.06307 0 
89.4795 2.32342 0 
91.0662 3.05221 0 
89.7408 4.0092 0 
89.9772 3.1309 0 
91.3004 3.89007 0 
91.3751 3.74122 0 
91.3836 2.65445 0 
91.0676 4.09116 0 
91.0607 4.06962 0 
90.5166 3.89418 0 
90.1399 4.51399 0 
90.4654 2.44824 0 
91.2968 3.43384 0 
89.6297 2.93614 0 
89.318 3.34581 0 
91.3131 2.90519 0 
91.4837 2.24668 0 
91.3101 3.67301 0 
90.6845 3.18193 0 
90.9088 3.93509 0 
90.3818 2.16193 0 
89.3096 3.89136 0 
89.7771 4.19863 0 
88.9337 5.56404 0 
89.6262 5.06596 0 
91.6237 5.76183 0 
89.7887 6.747 0 
90.965 5.61324 0 
90.8751 6.73306 0 
89.3613 6.61697 0 
91.6077 5.91702 0 
91.5955 4.47236 0 
90.967 6.73156 0 
91.3638 4.5788 0 
89.3495 5.81364 0 
91.0983 4.8794 0 
89.5352 6.67263 0 
90.637 6.90838 0 
89.5671 7.20609 0 
89.6819 5.09863 0 
89.3635 5.83362 0 
90.9195 5.92486 0 
91.0793 7.072 0 
91.1936 7.81417 0 
90.6571 7.87894 0 
89.6477 9.40059 0 
[...]
      <PointData Vectors="vector">
        <DataArray type="Float32" Name="Velocity" NumberOfComponents="3" format="ascii">

-247.14 -185.82 0 
-217.522 -134.619 0 
-231.477 -103.832 0 
-204.114 -67.0262 0 
-180.913 -28.5737 0 
-198.753 -7.26032 0 
-213.065 -121.91 0 
-177.871 -66.2696 0 
-196.908 -77.2902 0 
-214.285 -93.9293 0 
-131.133 115.224 0 
-175.898 36.9224 0 
-207.395 -117.076 0 
-222.693 -121.356 0 
-222.552 -80.1048 0 
-173.113 66.7831 0 
-184.755 -123.828 0 
-176.15 81.9723 0 
-183.326 -79.7682 0 
-176.908 -52.6391 0 
-138.438 98.6982 0 
-162.222 -49.5909 0 
-173.981 -42.4573 0 
-137.799 97.8567 0 
-189.065 -41.2331 0 
-162.129 -24.6424 0 
-175.449 10.8147 0 
-176.269 4.72726 0 
-181.322 -3.55694 0 
-194.164 -137.199 0 
-181.031 -145.391 0 
-204.473 -140.846 0 
-170.507 57.8644 0 
-180.977 -158.697 0 
-184.969 -125.845 0 
-172.313 -130.426 0 
-200.793 -105.092 0 
-201.118 -118.988 0 
-211.677 -123.743 0 
-216.909 -93.4408 0 
-191.192 -90.8662 0 
-227.259 -122.836 0 
-176.094 -105.203 0 
-146.496 97.8832 0 
-222.807 -74.9397 0 
-160.715 -57.694 0 
-177.706 -81.0276 0 
-181.025 -98.2248 0 
-151.732 -57.4673 0 
-153.413 68.1351 0 
-185.8 -56.0063 0 
-145.658 93.953 0 
-159.915 -91.3995 0 
-178.599 -98.3317 0 
-189.644 -107.433 0 
-234.799 -85.5469 0 
-181.122 -51.7226 0 
-220.942 -99.1051 0 
-147.6 -38.6672 0 
-139.261 100.059 0 
-212.2 -54.5583 0 
-166.854 -56.2858 0 
-212.029 -64.9197 0 
-230.962 -82.0994 0 
-118.503 91.782 0 
-157.027 -54.0944 0 
-181.923 -29.6006 0 
-187.35 -67.2454 0 
-196.833 -55.1897 0 
-134.811 79.684 0 
-190.809 8.44898 0 
-177.117 -14.5108 0 
-179.533 -35.0322 0 
-193.329 -34.5564 0 
-178 -11.5867 0 
-153.688 -24.7451 0 
-200.878 -18.4363 0 
-132.085 1.18979 0 
-176.327 -158.291 0 
-155.631 13.2441 0 
-136.954 18.7401 0 
-167.915 15.7171 0 
-245.559 -159.968 0 
-130.791 16.2116 0 
-168.922 -154.98 0 
-168.365 -137.36 0 
-228.795 -160.201 0 
-242.616 -148.38 0 
-120.35 22.6905 0 
-191.987 -144.757 0 
-195.213 4.0825 0 
-241.148 -138.364 0 
-180.421 -127.489 0 
-208.415 -138.58 0 
-175.142 29.7006 0 
-180.013 -129.208 0 
-239.665 -90.7185 0 
-166.91 -136.841 0 
-178.221 -86.6011 0 
-202.262 -151.541 0 
-235.916 -93.9367 0 
-161.225 -87.4377 0 
-194.863 -94.4248 0 
-160.927 -140.199 0 
-138.326 39.7259 0 
-204.55 -118.859 0 
-179.211 -152.35 0 
-249.961 -118.731 0 
-154.309 -66.6736 0 
-188.543 -88.0333 0 
-216.354 -134.53 0 
-178.839 -121.1 0 
-181.901 -92.5083 0 
-128.647 74.0984 0 
-188.093 -95.5197 0 
-166.011 67.4406 0 
-199.046 -79.9463 0 
-178.271 -64.3105 0 
-181.596 -44.7184 0 
-186.733 -108.249 0 
-159.814 -99.0023 0 
-193.935 -116.75 0 
-199.678 -84.964 0 
-166.912 -54.6835 0 
-199.086 -121.325 0 
-175.027 -72.311 0 
-178.12 -102.787 0 
-181.065 -81.0712 0 
-150.129 -81.271 0 
-174.945 -38.5801 0 
-189.162 -84.2941 0 
-203.021 -72.9237 0 
-183.114 -52.107 0 
-147.076 87.1443 0 
-150.008 68.4277 0 
-210.826 -62.5379 0 
-159.153 -68.2577 0 
-112.682 103.433 0 
-169.099 -50.069 0 
-176.47 -82.1636 0 
-224.894 -68.6131 0 
-155.904 -93.3087 0 
-217.821 -117.974 0 
-163.274 -69.7666 0 
-183.052 -41.8182 0 
-153.262 -66.1319 0 
-199.449 -74.7486 0 
-198.657 -75.4264 0 
-219.425 -97.3778 0 
-192.822 -88.085 0 
-175.882 -81.086 0 
-158.941 -81.2821 0 
-198.879 -75.7293 0 
-215.583 -54.3939 0 
-211.996 -115.821 0 
-198.527 -99.5437 0 
-172.629 -55.585 0 
-192.577 -93.0491 0 
-202.884 -79.4916 0 
-157.943 -44.7352 0 
-172.528 -56.1297 0 
-188.192 -45.1177 0 
-194.545 -40.6078 0 
-191.088 -62.0463 0 
-176.682 -46.6128 0 
-194.055 -61.644 0 
-165.758 -26.4495 0 
-222.156 -11.4364 0 
-206.7 -53.8711 0 
-158.104 140.93 0 
-140.308 112.107 0 
-198.18 -25.4446 0 
-169.33 -77.6148 0 
-187.014 -73.1909 0 
-140.32 -72.9935 0 
-161.287 -12.7608 0 
-202.176 -66.2469 0 
-173.263 -44.1406 0 
-185.943 1.91587 0 
-167.687 -36.544 0 
-201.541 19.5756 0 
-186.963 -3.48557 0 
-223.149 11.1597 0 
-189.277 4.52808 0 
-196.41 -27.646 0 
-210.361 -4.13711 0 
-171.797 -17.5281 0 
-164.621 2.53834 0 
-174.267 10.1527 0 
-176.455 -15.847 0 
-159.217 -6.51604 0 
-136.927 7.01985 0 
-147.142 -2.34594 0 
-170.643 -29.2328 0 
-197.993 0.367702 0 
-209.37 -208.693 0 
-134.871 -151.045 0 
-200.134 -183.281 0 
-167.296 32.5279 0 
-167.6 7.86499 0 
-235.474 -169.064 0 
-172.751 -168.995 0 
-185.672 -164.305 0 
-94.3329 30.9624 0 
-167.476 6.74238 0 
-164.374 -170.912 0 
-237.543 -186.586 0 
-179.369 -123.018 0 
-206.37 -170.506 0 
-210.575 -135.127 0 
-145.079 -145.725 0 
-195.336 -170.994 0 
-157.873 27.8046 0 
-103.703 46.4574 0 
-140.149 26.3257 0 
-159.486 -163.527 0 
-220.235 -128.074 0 
-230.622 -124.367 0 
-232.829 -115.109 0 
-154.649 26.0027 0 
-193.451 -171.166 0 
-195.851 -170.166 0 
-159.722 -146.052 0 
-161.402 -0.0558942 0 
-182.699 22.0124 0 
-190.696 -141.072 0 
-164.438 23.1023 0 
-210.796 -149.104 0 
-195.139 -140.358 0 
-237.145 -96.6507 0 
-215.382 -104.704 0 
-236.986 -131.261 0 
-122.073 30.7231 0 
-188.884 -145.446 0 
-152.889 39.0778 0 
-197.474 53.4172 0 
-173.493 17.8876 0 
-191.087 -142.719 0 
-171.909 -20.1692 0 
-127.052 -136.386 0 
-176.15 -109.723 0 
-131.778 -137.161 0 
-150.682 -94.9061 0 
-228.662 -75.7694 0 
-243.191 -119.952 0 
-160.919 -131.447 0 
-208.201 -109.188 0 
-183.812 -126.988 0 
-201.142 -114.967 0 
-141.764 -117.17 0 
-204.15 -121.823 0 
-182.445 19.2381 0 
-153.802 -132.442 0 
-183.976 -96.6183 0 
-180.777 -141.428 0 
-161.668 -102.54 0 
-221.916 -57.381 0 
-173.55 -133.589 0 
-185.533 -65.1174 0 
-152.978 -100.042 0 
-150.297 85.133 0 
-172.016 -162.611 0 
-137.551 43.8027 0 
-212.285 -118.498 0 
-180.395 -95.0126 0 
-177.436 -153.847 0 
-177.963 -122.668 0 
-154.166 41.3081 0 
-163.401 -110.223 0 
-172.27 -90.0196 0 
-145.703 68.1046 0 
-180.406 -123.221 0 
-176.756 -86.7737 0 
-124.437 81.1235 0 
-197.985 -83.5211 0 
-167.158 -75.5775 0 
-176.4 -131.524 0 
-144.608 105.379 0 
-179.219 -101.482 0 
-205.07 -98.2762 0 
-168.653 -119.492 0 
-159.806 -104.397 0 
-253.793 -125.809 0 
-149.291 -133.507 0 
-197.564 -60.6291 0 
-165.021 -105.873 0 
-189.296 -58.8162 0 
-167.029 -89.5032 0 
-183.611 -107.413 0 
-158.666 -73.2527 0 
-157.862 -122.77 0 
-131.437 52.7072 0 
-182.278 -111.465 0 
-170.369 -114.716 0 
-191.85 -115.4 0 
-210.415 -58.5372 0 
-197.269 -102.951 0 
-174.289 -97.1755 0 
-200.663 -77.3523 0 
-198.556 -99.2923 0 
-151.233 85.5735 0 
-190.011 -91.4357 0 
-194.426 -74.6373 0 
-141.024 -57.9932 0 
-153.338 -98.3215 0 
-154.838 -76.107 0 
-160.152 -81.7428 0 
-172.52 -117.349 0 
-174.65 -82.8338 0 
-165.389 -78.8621 0 
-223.582 -68.9013 0 
-196.173 -89.9587 0 
-142.053 -107.461 0 
-178.351 -87.2046 0 
-149.65 -70.2746 0 
-185.244 -56.5633 0 
-170.146 -49.4622 0 
-150.909 -49.129 0 
-187.691 -29.8181 0 
-133.796 95.5189 0 
-140.78 -95.0446 0 
-229.626 -111.215 0 
-217.273 -99.1798 0 
-187.054 -93.5002 0 
-190.815 -61.258 0 
-102.381 104.085 0 
-169.935 103.767 0 
-153.677 -90.2199 0 
-154.071 -84.7779 0 
-188.126 -16.5569 0 
-144.262 -87.1545 0 
-174.481 -61.2154 0 
-191.518 -54.5706 0 
-207.585 -54.8068 0 
-199.326 -75.5592 0 
-173.731 -77.8482 0 
-153.495 -57.2288 0 
-190.657 -67.5048 0 
-144.822 -84.2041 0 
-124.819 97.9302 0 
-193.737 -37.6887 0 
-188.31 -83.3864 0 
-151.916 -66.6592 0 
-197.497 -55.891 0 
-144.098 -40.0469 0 
-170.407 -49.5548 0 
-175.932 -67.1222 0 
-158.538 -48.0048 0 
-208.191 11.4676 0 
-164.286 -75.5945 0 
-193.531 -72.0614 0 
-164.298 -67.3293 0 
-142.079 -58.9787 0 
-192.422 -25.5428 0 
-155.642 -9.78035 0 
-230.357 -56.9462 0 
-157.615 -67.5977 0 
-143.675 -75.047 0 
-187.441 -56.5753 0 
-184.204 -31.1439 0 
-209.549 -26.0601 0 
-176.337 -48.0215 0 
-191.221 -23.4492 0 
-184.093 -36.4385 0 
-192.781 -46.1013 0 
-122.662 114.811 0 
-173.751 -17.704 0 
-144.621 -29.4319 0 
-207.493 -41.4669 0 
-192.19 -37.5707 0 
-186.765 -69.7566 0 
-169.178 -85.4771 0 
-129.234 -55.7515 0 
-149.146 -21.5051 0 
-169.807 -64.2514 0 
-158.204 -52.3391 0 
-189.35 20.9022 0 
-183.357 -50.4477 0 
-161.108 -29.6375 0 
-186.848 -12.3591 0 
-182.74 -11.1521 0 
-181.31 -24.1482 0 
-147.316 -7.8466 0 
-223.18 -45.1498 0 
-200.926 -4.86365 0 
-181.007 -29.549 0 
-129.494 -30.9253 0 
-169.708 3.99191 0 
-157.101 -24.6645 0 
-185.668 -59.2081 0 
-180.747 7.73139 0 
-207.975 -0.195796 0 
-207.239 -24.4161 0 
-196.064 -184.08 0 
-193.378 2.76948 0 
-147.389 32.6147 0 
-150.178 6.06151 0 
-121.192 18.5624 0 
-132.252 -30.5657 0 
-145.556 7.944 0 
-164.323 29.5086 0 
-196.854 -174.367 0 
-186.948 -134.72 0 
-204.699 -170.112 0 
-176.955 -186.48 0 
-126.604 -137.872 0 
-164.793 65.5772 0 
-184.491 19.7574 0 
-152.116 -173.854 0 
-178.734 22.9511 0 
-201.752 -154.341 0 
-166.481 -159.865 0 
-195.017 -142.718 0 
-219.3 -163.18 0 
-193.241 -139.439 0 
-108.751 -13.7759 0 
-205.667 -200.735 0 
-147.043 11.7185 0 
-161.747 -171.301 0 
-133.591 5.7603 0 
-122.872 7.25789 0 
-183.402 -187.734 0 
-168.898 -170.879 0 
-151.354 -190.114 0 
-171.482 -176.799 0 
-196.022 -148.918 0 
-188.632 -142.548 0 
-201.934 -165.631 0 
-182.308 -185.583 0 
-182.208 -140.889 0 
-140.799 -193.979 0 
-190.855 -192.348 0 
-129.868 -169.63 0 
-220.434 -164.622 0 
-132.815 36.9659 0 
-158.081 -18.4581 0 
-120.892 17.7828 0 
-164.749 -155.566 0 
-167.239 -132.439 0 
-206.265 -129.737 0 
-198.696 -113.193 0 
-175.71 -145.357 0 
-220.182 -134.017 0 
-178.728 -178.121 0 
-145.004 -136.897 0 
-188.466 -177.073 0 
-157.225 28.2741 0 
-169.998 -167.133 0 
-180.191 -182.03 0 
-188.751 -156.792 0 
-123.487 -150.593 0 
-139.832 47.562 0 
-181.345 -136.887 0 
-216.227 -113.978 0 
-213.392 -140.663 0 
-182.461 -90.1146 0 
-218.263 -136.568 0 
-209.249 -135.261 0 
-215.648 -87.5045 0 
-204.997 -116.029 0 
-212.207 -120.796 0 
-221.436 -142.973 0 
-232.879 -154.889 0 
-218.508 -125.82 0 
-220.798 -129.769 0 
-206.388 -136.032 0 
-178.314 -146.048 0 
-180.868 -151.602 0 
-190.557 -142.893 0 
-103.419 47.3911 0 
-192.925 -131.882 0 
-179.714 42.3222 0 
-185.33 -155.77 0 
-167.058 27.5963 0 
-185.647 -150.928 0 
-204.009 -123.602 0 
-232.893 -154.794 0 
-198.858 -148.403 0 
-196.768 -154.836 0 
-205.342 -149.31 0 
-161.04 -160.821 0 
-131.725 13.3027 0 
-199.801 -90.9023 0 
-215.338 -119.287 0 
-165.562 -104.598 0 
-206.801 -137.618 0 
-179.394 -73.4626 0 
-206.865 -110.959 0 
-197.942 -107.81 0 
-185.754 -101.502 0 
-223.516 -112.992 0 
-157.139 -103.055 0 
-199.171 -93.3436 0 
-172.94 40.5104 0 
-195.826 -141.45 0 
-178.845 -103.557 0 
-157.122 -141.383 0 
-202.331 -138.704 0 
-184.088 -121.873 0 
-192.983 -136.178 0 
-185.536 -116.84 0 
-163.336 43.2011 0 
-203.957 -158.147 0 
-150.397 -131.319 0 
-155.895 -111.163 0 
-173.179 -116.648 0 
-205.056 -123.059 0 
-151.911 -126.042 0 
-183.797 -102.282 0 
-215.326 -124.942 0 
-159.526 -120.539 0 
-230.393 -66.1218 0 
-212.82 -87.6166 0 
-156.024 -152.623 0 
-183.373 -121.546 0 
-144.007 -121.281 0 
-156.762 -131.587 0 
-191.145 -103.704 0 
-148.482 -103.658 0 
-197.293 -101.379 0 
-165.556 -94.2004 0 
-178.832 -161.021 0 
-156.617 -84.9258 0 
-173.422 -127.154 0 
-174.376 -125.253 0 
-163.492 -138.698 0 
-140.456 -110.636 0 
-133.461 45.1864 0 
-203.027 -111.447 0 
-165.557 -91.7855 0 
-187.487 -117.762 0 
-203.677 -89.1079 0 
-198.005 -122.976 0 
-144.875 -119.563 0 
-146.243 26.9292 0 
-183.054 -129.565 0 
-191.273 -68.2599 0 
-216.379 -64.2685 0 
-205.823 -70.978 0 
-205.14 -91.595 0 
-146.282 -96.7184 0 
-138.405 53.8888 0 
-170.132 -113.523 0 
-150.498 -86.9353 0 
-141.612 -110.247 0 
-197.45 -81.1224 0 
-187.238 -101.677 0 
-203.453 -95.4547 0 
-206.694 -97.2112 0 
-196.336 -70.526 0 
-204.935 -94.8041 0 
-205.202 -97.2175 0 
-137.283 -104.591 0 
-149.959 -90.713 0 
-101.868 78.2727 0 
-170.393 -119.391 0 
-171.827 -102.515 0 
-148.784 -86.5261 0 
-178.814 -99.8432 0 
-191.929 -80.1208 0 
-182.104 -74.523 0 
-187.196 -89.7411 0 
-161.775 -72.9491 0 
-146.416 -89.1472 0 
-177.572 -92.5176 0 
-166.022 -116.837 0 
-172.401 -84.2342 0 
-168.381 -67.205 0 
-139.995 -99.6114 0 
-143.288 -113.478 0 
-192.533 -94.1899 0 
-178.939 -89.5795 0 
-177.784 -119.709 0 
-161.179 -115.59 0 
-214.568 -89.8861 0 
-150.969 -103.577 0 
-199.512 -104.101 0 
-188.534 -85.5763 0 
-109.21 76.9971 0 
-134.034 -84.3405 0 
-159.223 -108.599 0 
-121.233 58.0257 0 
-166.554 -119.673 0 
-173.578 -86.3122 0 
-153.349 -111.077 0 
-170.203 -121.649 0 
-196.762 -106.908 0 
-132.362 -91.6901 0 
-129.472 -59.9838 0 
-194.771 -87.6304 0 
-149.526 -96.842 0 
-175.052 -113.231 0 
-214.263 -86.5626 0 
-164.918 -67.7462 0 
-117.67 -116.872 0 
-150.007 -117.236 0 
-177.773 -91.2241 0 
-182.697 -90.1186 0 
-124.754 -105.596 0 
-142.26 -106.237 0 
-161.035 -93.7538 0 
-173.16 -106.121 0 
-186.402 -72.4655 0 
-124.204 -77.2289 0 
-160.242 -85.6643 0 
-172.856 -34.9938 0 
-196.083 -63.5136 0 
-176.897 -59.2599 0 
-172.126 -39.603 0 
-137.473 79.1172 0 
-149.29 -61.2508 0 
-164.271 -85.5752 0 
-190.591 -74.7321 0 
-214.622 -81.6354 0 
-108.645 107.952 0 
-205.334 -60.4483 0 
-139.326 -58.1881 0 
-197.65 -92.4808 0 
-156.807 -69.9559 0 
-163.789 -85.5085 0 
-165.266 -66.6126 0 
-163.234 -64.5535 0 
-178.228 -90.3577 0 
-198.32 -72.2945 0 
-139.852 -34.4486 0 
-205.946 -59.4572 0 
-148.164 -70.2357 0 
-158.564 -96.5479 0 
-151.251 -54.3829 0 
-175.389 -67.6338 0 
-161.806 -77.1501 0 
-153.085 -104.58 0 
-191.135 -77.2355 0 
-155.206 -75.2812 0 
-149.908 115.985 0 
-170.836 -49.7697 0 
-172.497 -86.1496 0 
-156.088 -70.8213 0 
-201.731 -46.6783 0 
-219.705 -62.6116 0 
-156.164 -44.5543 0 
-194.688 -78.2446 0 
-187.583 -61.7373 0 
-144.951 -42.4927 0 
-159.61 -41.8698 0 
-186.662 -76.6537 0 
-178.531 -72.809 0 
-141.096 -51.6396 0 
-203.152 -84.4314 0 
-166.421 -21.3418 0 
-180.022 -80.0887 0 
-178.217 43.5099 0 
-151.261 119.593 0 
-181.715 -47.0035 0 
-138.328 119.629 0 
-193.022 -56.0354 0 
-192.842 -32.366 0 
-180.245 -13.9087 0 
-183.561 28.8989 0 
-153.742 -25.1482 0 
-138.783 -59.3645 0 
-143.778 -66.6286 0 
-167.008 -39.1257 0 
-192.752 -17.162 0 
-130.521 -51.5112 0 
-176.239 -55.5042 0 
-193.005 -30.8497 0 
-187.008 -49.1207 0 
-134.083 -28.7582 0 
-169.498 -39.6149 0 
-191.302 -29.0181 0 
-176.712 -62.3502 0 
-208.621 -67.9892 0 
-137.674 -70.2948 0 
-186.744 -36.5511 0 
-166.735 -50.4435 0 
-173.433 8.38538 0 
-251.909 -12.2082 0 
-151.8 -4.80587 0 
-190.228 -65.8026 0 
-153.294 -27.6815 0 
-183.024 -60.1012 0 
-167.419 8.30838 0 
-142.751 3.62172 0 
-161.835 15.8429 0 
-162.055 -4.30552 0 
-144.24 0.999376 0 
-151.447 -45.1299 0 
-155.901 -12.4513 0 
-157.43 31.0446 0 
-177.114 0.667904 0 
-172.522 12.438 0 
-148.131 -35.316 0 
-156.88 -63.3684 0 
-153.096 -5.04848 0 
-138.214 9.71401 0 
-156.992 0.264292 0 
-147.353 -10.2599 0 
-156.018 10.7414 0 
-160.039 -22.1034 0 
-176.755 -15.4499 0 
-193.653 -1.10172 0 
-162.417 -140.872 0 
-177.846 -173.379 0 
-153.344 3.45752 0 
-182.921 -0.626142 0 
-178.446 -26.2742 0 
-182.645 -28.3502 0 
-154.443 42.9832 0 
-140.269 -22.7001 0 
-154.089 -20.0803 0 
-159.743 29.0549 0 
-101.146 -21.6499 0 
-171.532 -17.3994 0 
-193.859 -140.896 0 
-109.705 -179.278 0 
-215.177 14.1762 0 
-157.25 -15.571 0 
-99.5037 -12.5635 0 
-156.024 -184.451 0 
-194.533 -233.737 0 
-127.164 -175.35 0 
-163.952 -162.383 0 
-118.472 -19.4417 0 
-197.069 -195.516 0 
-137.965 55.6171 0 
-141.165 -189.036 0 
-139.256 -188.863 0 
-148.659 11.6917 0 
-160.939 -22.7882 0 
-108.33 -23.897 0 
-178.55 -160.939 0 
-219.603 -173.558 0 
-215.376 -186.871 0 
-162.476 -138.512 0 
-217.198 -151.664 0 
-187.609 -178.813 0 
-155.66 -169.975 0 
-191.073 -191.422 0 
-189.457 -201.608 0 
-157.373 -196.239 0 
-181.24 37.6743 0 
-162.125 -177.442 0 
-211.926 -160.666 0 
-167.521 -165.937 0 
-186.434 -160.098 0 
-205.606 -171.478 0 
-213.458 -156.868 0 
-188.288 -173.125 0 
-165.886 -183.526 0 
-204.473 -103.063 0 
-199.627 -163.968 0 
-201.775 -166.215 0 
-190.789 -168.649 0 
-195.309 -184.721 0 
-152.22 -177.288 0 
-143.591 -200.773 0 
-124.484 -153.857 0 
-157.077 -24.0247 0 
-163.026 -147.95 0 
-153.358 -152.945 0 
-214.289 -130.182 0 
-158.874 -22.942 0 
-137.914 -175.698 0 
-140.39 -193.544 0 
-186.763 -143.558 0 
-128.869 37.7969 0 
-168.623 -162.578 0 
-133.465 -164.263 0 
-140.777 -156.087 0 
-207.693 -160.455 0 
-218.306 -156.691 0 
-185.774 -138.334 0 
-175.763 -150.36 0 
-187.152 -144.913 0 
-144.83 -134.783 0 
-200.868 -128.865 0 
-170.3 -131.697 0 
-199.581 -153.901 0 
-209.591 -144.434 0 
-190.659 -152.937 0 
-168.388 -142.625 0 
-168.571 -133.94 0 
-199.041 -125.259 0 
-210.603 -141.582 0 
-167.805 -145.239 0 
-85.8744 26.3509 0 
-158.62 -181.643 0 
-134.727 -130.105 0 
-132.169 30.299 0 
-180.869 -154.433 0 
-140.022 -25.5588 0 
-178.356 -167.527 0 
-173.881 -175.378 0 
-148.82 -131.108 0 
-156.401 -164.808 0 
-150.331 -148.271 0 
-153.572 -131.574 0 
-154.013 -148.09 0 
-160.127 -127.286 0 
-163.592 49.3542 0 
-166.875 -158.562 0 
-189.612 -146.091 0 
-182.629 -160.155 0 
-170.121 -172 0 
-171.426 -166.152 0 
-166.97 -164.905 0 
-175.618 -185.561 0 
-133.82 13.978 0 
-175.015 -157.322 0 
-157.289 -156.388 0 
-156.223 -179.361 0 
-188.018 -123.379 0 
-179.047 -124.969 0 
-201.035 -144.864 0 
-152.855 -155.387 0 
-159.383 -132.594 0 
-191.651 -123.015 0 
-167.792 -147.199 0 
-171.09 -106.518 0 
-174.143 -140.98 0 
-155.89 -114.514 0 
-162.148 -154.025 0 
-161.325 -129.855 0 
-169.229 -163.816 0 
-200.604 -120.488 0 
-167.334 -101.635 0 
-144.662 -139.666 0 
-131.08 -112.28 0 
-187.257 -143.164 0 
-161.46 -140.519 0 
-181.154 -132.013 0 
-128.844 2.67876 0 
-214.012 -170.368 0 
-196.003 -144.23 0 
-171.277 -130.332 0 
-160.986 -103.334 0 
-186.171 -114.289 0 
-171.864 -138.841 0 
-156.341 -105.719 0 
-212.83 -106.439 0 
-170.14 -132.283 0 
-176.553 -128.264 0 
-175.22 -117.896 0 
-165.216 -100.734 0 
-167.743 -134.85 0 
-131.742 -109.921 0 
-138.974 45.3401 0 
-107.65 54.7309 0 
-129.328 -139.987 0 
-143.562 25.9541 0 
-182.188 -134.676 0 
-174.658 -134.996 0 
-168.376 -130.06 0 
-134.872 -121.984 0 
-163.407 -160.297 0 
-149.75 -148.695 0 
-162.509 -113.556 0 
-155.672 -131.831 0 
-137.409 21.1245 0 
-110.161 -135.301 0 
-183.258 -129.8 0 
-141.399 0.45554 0 
-154.239 -122.001 0 
-181.926 -115.57 0 
-167.081 -168.659 0 
-184.278 -67.0423 0 
-176.564 -97.0608 0 
-194.387 -111.799 0 
-168.876 -132.761 0 
-174.41 -98.2674 0 
-167.572 -115.618 0 
-192.44 -125.93 0 
-191.607 -107.777 0 
-195.389 -90.3375 0 
-195.661 -124.358 0 
-178.059 -81.3071 0 
-151.096 -150.74 0 
-189.61 -119.603 0 
-153.528 -97.1963 0 
-160.608 -102.255 0 
-190.727 -153.136 0 
-173.426 -93.5447 0 
-179.271 -140.461 0 
-186.839 -91.9232 0 
-196.634 -142.206 0 
-195.423 -132.359 0 
-161.586 -59.5777 0 
-181.569 -126.207 0 
-155.178 -123.862 0 
-190.126 -147.629 0 
-196.428 -112.603 0 
-189.276 -151.626 0 
-145.475 -107.673 0 
-175.11 -96.1475 0 
-188.229 -98.7227 0 
-158.522 -120.453 0 
-165.543 -116.171 0 
-177.731 -125.387 0 
-174.748 -120.746 0 
-195.725 -127.051 0 
-175.109 -77.1347 0 
-195.34 -62.6491 0 
-165.956 -113.087 0 
-210.642 -79.6219 0 
-202.06 -100.332 0 
-200.002 -86.3224 0 
-126.198 -130.525 0 
-165.231 -102.577 0 
-197.226 -113.783 0 
-196.241 -101.966 0 
-174.661 -112.047 0 
-180.459 -120.237 0 
-183.066 -105.454 0 
-180.501 -95.7383 0 
-187.217 -94.6993 0 
-208.342 -86.2144 0 
-177.038 -60.8298 0 
-177.825 -115.372 0 
-196.461 -115.84 0 
-138.141 -72.7802 0 
-154.584 -97.966 0 
-141.078 -136.08 0 
-116.259 -92.5744 0 
-128.906 -99.2715 0 
-154.274 -108.458 0 
-166.521 -116.366 0 
-148.474 -92.0676 0 
-175.273 -118.787 0 
-147.601 -102.099 0 
-137.496 -97.7595 0 
-166.993 -105.921 0 
-142.012 -112.014 0 
-175.231 -95.4909 0 
-155.381 -96.2805 0 
-159.832 -108.251 0 
-160.963 -128.533 0 
-212.364 -119.123 0 
-171.618 -100.619 0 
-172.812 -85.4324 0 
-173.124 -120.498 0 
-152.076 -65.9765 0 
-151.225 -41.7935 0 
-163.127 -89.0183 0 
-149.812 -110.71 0 
-151.95 -64.4247 0 
-184.938 -99.6399 0 
-124.395 71.5733 0 
-184.38 -85.5971 0 
-165.935 -111.266 0 
-189.554 -93.4703 0 
-192.319 -115.38 0 
-158.582 -129.107 0 
-195.064 -93.2628 0 
-199.318 -99.8384 0 
-158.033 -96.0488 0 
-122.367 -73.8122 0 
-146.947 -70.8043 0 
-184.87 -71.6343 0 
-172.34 -112.555 0 
-141.952 -107.684 0 
-119.401 -113.41 0 