<VTKFile type="UnstructuredGrid" version="0.1" byte_order="BigEndian">
  <UnstructuredGrid>
        <Piece NumberOfPoints="8000" NumberOfCells="0" Time= "0.42">      <Points>
        <DataArray name="Position" type="Float32"  NumberOfComponents= "3"  format="ascii">

43.5621 7.853 0 
48.6317 16.54 0 
46.4919 22.7569 0 
50.8972 17.3375 0 
51.0637 18.6686 0 
51.299 25.0986 0 
50.7887 32.8759 0 
53.1313 5.20257 0 
51.5775 19.5558 0 
53.5076 21.4479 0 
53.0497 24.0492 0 
52.7646 27.5115 0 
56.1878 0.0662571 0 
55.0923 0.483774 0 
55.5855 4.49061 0 
54.6613 6.70087 0 
55.6464 8.79617 0 
54.3794 10.5512 0 
55.4256 10.6866 0 
55.7073 12.7353 0 
55.1897 14.0287 0 
56.3759 13.6152 0 
54.9106 12.8467 0 
55.6042 12.4012 0 
55.4187 15.9336 0 
56.3262 15.2359 0 
56.2724 17.1572 0 
55.8747 18.3407 0 
54.1957 18.5414 0 
55.2783 18.411 0 
54.779 21.1014 0 
55.7453 23.6758 0 
56.1876 24.5546 0 
56.2259 21.9714 0 
54.5678 24.8951 0 
56.3882 26.9263 0 
55.5225 28.7098 0 
54.1535 31.2894 0 
55.142 30.739 0 
56.2477 32.8259 0 
55.7025 33.7535 0 
54.4703 35.2798 0 
55.7508 37.4074 0 
57.667 1.49384 0 
58.3679 38.9689 0 
57.5648 2.76631 0 
58.6074 2.37452 0 
57.2449 4.84963 0 
58.3061 6.91632 0 
56.5763 8.70698 0 
57.3605 7.66039 0 
58.0441 8.33177 0 
57.3964 9.37558 0 
58.8929 12.1817 0 
58.4428 9.82336 0 
57.3296 10.319 0 
57.7737 11.1422 0 
58.5202 10.3384 0 
56.9645 12.0147 0 
56.7429 14.7995 0 
58.7242 13.0564 0 
57.9803 15.0432 0 
58.722 14.5918 0 
56.8252 14.7366 0 
56.724 14.378 0 
58.0824 15.3103 0 
58.5645 15.932 0 
57.4867 18.6861 0 
58.2558 19.1112 0 
56.6873 20.4028 0 
58.4492 22.8894 0 
57.6504 22.2364 0 
57.0921 22.793 0 
58.4731 25.9802 0 
56.9127 25.438 0 
56.5941 26.9305 0 
57.1279 28.8002 0 
57.692 27.3933 0 
57.1608 29.3639 0 
57.8367 30.1234 0 
56.8401 30.6016 0 
56.3945 31.5907 0 
57.7195 32.5192 0 
58.5129 31.3293 0 
57.1587 31.9695 0 
57.7364 33.9346 0 
56.5905 33.2573 0 
56.9167 32.5139 0 
57.6846 32.3249 0 
57.2012 33.9777 0 
57.2648 36.6097 0 
58.0147 37.6583 0 
57.8703 36.254 0 
56.5292 37.0938 0 
56.3657 35.7132 0 
56.9809 37.929 0 
57.4025 38.5968 0 
60.6286 39.966 0 
61.1029 2.11854 0 
61.1104 0.617468 0 
61.2812 1.77933 0 
59.7755 0.228065 0 
60.2621 39.5279 0 
59.2859 0.0414848 0 
60.1774 3.91163 0 
61.4426 4.42757 0 
59.7642 3.55058 0 
60.9814 1.86774 0 
59.6865 3.25193 0 
60.4997 3.14644 0 
60.3382 6.2785 0 
58.911 4.15093 0 
59.3447 5.86283 0 
60.2104 5.04422 0 
59.4798 5.28599 0 
59.9114 6.08523 0 
59.1911 6.23185 0 
60.613 7.40185 0 
60.2588 8.41689 0 
59.079 7.91995 0 
60.6582 7.81016 0 
59.0739 7.98285 0 
60.0079 6.95693 0 
59.5614 9.65643 0 
59.4506 11.2115 0 
59.9775 10.6872 0 
60.6326 11.0448 0 
61.0668 10.5246 0 
60.9217 10.0333 0 
59.0979 9.64605 0 
61.4236 13.2823 0 
59.038 13.3869 0 
59.4538 13.1799 0 
59.3574 15.3051 0 
59.6588 14.4135 0 
59.6432 16.1754 0 
60.8943 15.2101 0 
59.8631 16.1949 0 
60.6704 15.4643 0 
59.8031 16.1842 0 
59.8202 14.9484 0 
59.5274 16.5814 0 
60.7915 15.4177 0 
59.636 14.1635 0 
59.015 15.5878 0 
58.9124 16.7295 0 
61.5162 16.3353 0 
58.9703 17.0258 0 
61.1446 17.0417 0 
61.0981 18.3789 0 
61.0512 19.0401 0 
60.6333 18.1162 0 
59.2735 19.5514 0 
60.9783 18.8992 0 
60.4396 17.017 0 
59.4306 17.1702 0 
59.3438 19.812 0 
59.9533 21.2335 0 
61.0884 21.3732 0 
60.659 20.0223 0 
61.5138 22.0566 0 
61.2501 25.1177 0 
61.4168 22.6112 0 
60.5543 25.4058 0 
61.061 23.7089 0 
61.3052 23.0987 0 
60.955 23.0638 0 
60.3446 24.2545 0 
61.0118 23.3581 0 
59.0737 26.6801 0 
60.6372 25.4574 0 
58.7374 24.6385 0 
59.7586 26.0694 0 
60.0364 25.296 0 
61.4506 25.9733 0 
59.8166 25.9505 0 
61.0243 25.1382 0 
60.9043 24.56 0 
58.9476 25.1442 0 
58.756 28.3806 0 
61.2426 29.1776 0 
59.53 27.9122 0 
61.1511 27.4302 0 
60.6672 28.8232 0 
60.1217 27.5367 0 
59.5005 28.2264 0 
60.3124 27.3062 0 
60.9324 28.0562 0 
60.7806 31.2297 0 
60.2074 31.9798 0 
60.3683 31.0986 0 
60.6043 30.6913 0 
59.0876 31.0944 0 
58.9194 34.2513 0 
60.6754 34.3476 0 
60.1213 33.6892 0 
61.3477 31.9973 0 
61.098 34.6227 0 
60.1453 35.2352 0 
59.5874 36.2426 0 
60.5831 35.191 0 
59.2901 35.7664 0 
59.0578 36.7344 0 
60.5888 37.0547 0 
59.3401 39.0066 0 
60.0651 38.3776 0 
60.272 37.1965 0 
59.5302 38.0675 0 
59.0392 39.1355 0 
63.7459 0.626932 0 
63.4016 39.682 0 
63.0661 1.45296 0 
62.8762 1.44023 0 
62.2459 38.4258 0 
62.3616 0.14236 0 
64.0775 0.954134 0 
62.4939 39.7524 0 
63.7554 0.0670509 0 
61.8101 0.0900766 0 
63.0274 1.53441 0 
62.9926 39.5932 0 
62.4143 2.08244 0 
63.2527 0.458004 0 
63.142 0.296246 0 
63.0842 3.43298 0 
62.0578 2.2478 0 
63.7319 2.51225 0 
61.7048 4.25029 0 
62.0929 3.72852 0 
62.5078 4.58581 0 
61.6242 3.13158 0 
63.3647 3.85881 0 
62.4486 6.13342 0 
63.4811 6.04626 0 
62.1322 5.977 0 
61.8328 5.61678 0 
63.3847 4.9573 0 
62.8127 6.1903 0 
61.4596 5.55979 0 
62.0116 6.18735 0 
61.4138 6.89428 0 
63.0708 8.01983 0 
62.595 8.00086 0 
61.8912 9.64877 0 
63.1009 7.39552 0 
63.5565 8.86283 0 
63.6561 8.75635 0 
61.8483 8.37013 0 
63.3234 7.35733 0 
63.8994 7.46941 0 
63.4873 8.22844 0 
63.0929 7.78153 0 
62.2906 8.28477 0 
63.0124 7.35664 0 
63.2275 11.618 0 
62.887 9.29192 0 
63.238 9.6596 0 
62.6451 11.2615 0 
63.0154 10.9895 0 
63.0709 10.2633 0 
62.9113 10.6321 0 
63.7975 12.6389 0 
63.6682 9.2502 0 
62.6856 10.8809 0 
62.8629 10.7547 0 
62.4416 10.3476 0 
61.8241 11.4086 0 
61.8179 9.18279 0 
62.7344 9.76286 0 
62.8246 10.4117 0 
61.7368 10.0742 0 
62.2222 13.5578 0 
63.6764 12.2687 0 
63.5187 13.657 0 
61.4128 12.3814 0 
61.3728 12.2354 0 
61.985 14.1238 0 
61.5525 12.5509 0 
62.5687 13.8197 0 
61.4476 14.031 0 
61.3596 12.1523 0 
61.4348 12.2409 0 
62.1033 13.2821 0 
62.0188 11.8605 0 
62.8977 12.9548 0 
62.2492 12.7077 0 
63.4596 14.4608 0 
62.7048 12.7053 0 
62.7572 13.5144 0 
63.7008 13.3946 0 
63.152 13.8718 0 
62.6327 14.2787 0 
63.5666 14.6713 0 
62.6844 16.8623 0 
62.9557 16.0923 0 
63.9505 15.5331 0 
63.2405 14.7193 0 
61.6205 17.0492 0 
61.7887 15.5021 0 
63.1516 14.8308 0 
63.9133 15.874 0 
62.0777 15.8753 0 
62.3992 18.6605 0 
63.2519 18.331 0 
62.1276 16.7967 0 
62.1933 18.8354 0 
63.6608 18.9126 0 
61.9998 19.1108 0 
62.3495 18.3476 0 
61.8321 18.9319 0 
61.9941 17.9883 0 
61.7596 16.7111 0 
62.6566 19.2912 0 
63.1387 18.2809 0 
61.5117 17.5878 0 
62.6942 18.2169 0 
61.9271 16.9536 0 
63.2571 18.1129 0 
63.0943 20.5715 0 
62.1759 21.0845 0 
62.8063 20.5381 0 
63.4463 20.7917 0 
63.6877 21.8805 0 
63.1064 19.5179 0 
63.4317 23.6144 0 
62.7277 23.6547 0 
61.4722 21.9359 0 
63.7032 23.6145 0 
62.9937 23.0567 0 
63.5861 22.7028 0 
62.3211 22.2182 0 
62.585 22.2915 0 
62.2286 23.8267 0 
63.1425 22.5791 0 
61.7786 23.9404 0 
63.5654 22.005 0 
62.0974 24.4038 0 
63.5052 26.1915 0 
62.1753 24.7742 0 
61.6459 26.5116 0 
62.8765 25.0343 0 
61.696 28.5061 0 
63.5035 27.1877 0 
61.2667 28.9962 0 
62.7143 28.6305 0 
62.6222 27.4143 0 
63.1476 28.4727 0 
63.0408 27.3469 0 
62.8405 29.37 0 
62.9426 27.3604 0 
63.6197 29.1849 0 
61.9676 28.6421 0 
63.6251 27.7705 0 
63.3813 30.3973 0 
61.9148 30.1559 0 
62.5074 31.1559 0 
62.0103 34.1723 0 
61.6051 32.6223 0 
61.6749 34.3558 0 
62.647 33.0109 0 
62.1982 32.4263 0 
61.4379 34.3515 0 
62.1373 33.7029 0 
62.9461 33.9024 0 
63.4475 33.4377 0 
62.3665 32.548 0 
61.6348 34.1559 0 
62.4619 35.1496 0 
63.7228 34.1937 0 
62.3978 34.9625 0 
62.1942 35.4015 0 
63.5343 35.026 0 
63.5711 33.744 0 
63.2814 35.3302 0 
61.8145 36.1294 0 
62.6088 34.7683 0 
63.3219 35.5614 0 
63.3388 37.2982 0 
62.3009 36.7302 0 
63.1688 35.9484 0 
62.1298 39.0908 0 
62.9543 37.8379 0 
62.9193 38.1265 0 
61.9458 39.2581 0 
63.4601 1.66887 0 
64.5029 1.38495 0 
65.7138 0.305374 0 
66.3587 1.3257 0 
66.1706 0.304964 0 
65.3379 0.788073 0 
64.5237 2.73881 0 
65.004 2.66368 0 
65.1168 4.62297 0 
65.2354 2.72513 0 
64.3914 2.94495 0 
66.448 4.4573 0 
65.0126 3.15413 0 
64.6719 2.97823 0 
65.2136 4.09221 0 
65.4722 2.87582 0 
64.7475 2.28926 0 
64.1962 5.51677 0 
65.3551 6.42082 0 
64.8499 4.00418 0 
65.7522 6.20966 0 
65.2349 6.49261 0 
65.4417 6.31641 0 
64.3615 6.08324 0 
64.5477 4.68641 0 
66.3961 4.89884 0 
63.9357 5.94796 0 
65.2446 5.50291 0 
64.4849 6.70362 0 
65.4312 5.87836 0 
66.2826 4.83465 0 
66.1359 6.84008 0 
64.8714 6.46978 0 
64.6837 4.20277 0 
64.9637 7.0115 0 
66.0638 6.31247 0 
66.245 8.22825 0 
65.4402 6.93419 0 
65.981 7.77732 0 
64.9559 7.98779 0 
65.4412 7.56317 0 
65.8874 7.6523 0 
66.0635 6.74897 0 
64.5688 7.28208 0 
64.7683 6.53368 0 
64.4074 9.27902 0 
64.8214 7.03147 0 
66.2184 8.57472 0 
64.3039 8.02083 0 
64.9173 8.25207 0 
65.4277 7.85464 0 
66.0857 9.40161 0 
64.812 9.42808 0 
64.132 11.2729 0 
64.4113 10.6231 0 
64.2569 10.8274 0 
65.7852 9.81363 0 
66.1196 11.0476 0 
63.9478 11.5656 0 
64.6095 11.59 0 
64.0953 10.9204 0 
65.4348 10.3604 0 
65.0612 12.097 0 
63.7728 9.24441 0 
65.7654 11.0653 0 
66.3655 14.7081 0 
63.8935 12.4354 0 
64.4787 12.6035 0 
64.2372 12.0697 0 
65.9944 13.4366 0 
64.2897 14.0229 0 
65.4026 13.4314 0 
65.6056 13.5597 0 
64.008 13.0983 0 
65.7125 12.3734 0 
63.8835 13.8792 0 
65.9406 13.2191 0 
63.8212 12.4895 0 
64.9553 12.8866 0 
65.7451 15.4717 0 
64.1938 14.9881 0 
65.384 14.8439 0 
65.5404 16.1718 0 
66.0804 16.4445 0 
63.5971 15.253 0 
65.9465 15.7737 0 
64.5249 15.0323 0 
64.563 15.9571 0 
65.6936 15.6637 0 
66.0483 16.4075 0 
66.1603 15.7236 0 
64.1795 16.2962 0 
65.5692 17.126 0 
64.5478 14.4592 0 
65.045 16.0938 0 
65.2633 16.0577 0 
64.1381 15.8588 0 
66.0442 15.8854 0 
65.4043 15.1533 0 
66.1078 17.7885 0 
64.1478 15.3572 0 
64.7834 17.3973 0 
64.6644 16.935 0 
65.6874 17.1602 0 
65.3002 18.3225 0 
66.1388 17.8053 0 
65.9586 18.4823 0 
64.512 19.6217 0 
64.1022 18.9226 0 
64.7038 19.5671 0 
65.3428 16.7812 0 
66.1845 18.4917 0 
64.8159 17.0278 0 
64.553 18.9177 0 
63.9971 18.7553 0 
64.0104 18.6494 0 
65.2443 18.2835 0 
66.1452 18.8629 0 
64.614 20.3352 0 
64.4747 19.5701 0 
64.388 21.7082 0 
64.8573 20.5073 0 
66.0154 21.3773 0 
64.5348 20.9836 0 
63.9467 22.0373 0 
64.2461 21.1673 0 
64.0871 21.0091 0 
65.4361 19.4121 0 
66.1286 20.2965 0 
63.9222 20.5299 0 
65.8518 21.0985 0 
65.0302 19.4248 0 
[...]
      <PointData Vectors="vector">
        <DataArray type="Float32" Name="Velocity" NumberOfComponents="3" format="ascii">

-247.14 -185.82 0 
-231.477 -103.832 0 
-217.522 -134.619 0 
-235.654 -128.329 0 
-289.292 -95.8484 0 
-213.057 -122.231 0 
-222.551 -80.1046 0 
-204.114 -67.0263 0 
-274.553 -143.539 0 
-173.264 67.2334 0 
-255.221 -138.697 0 
-247.412 -132.702 0 
-194.949 -129.281 0 
-234.333 -105.944 0 
-230.7 -131.069 0 
-246.179 -66.486 0 
-208.974 -16.9206 0 
-209.073 -99.2809 0 
-215.66 29.3238 0 
-256.416 -57.0273 0 
-229.431 -83.5171 0 
-261.84 -189.107 0 
-264.431 -182.8 0 
-242.132 -194.944 0 
-242.618 -196.402 0 
-235.357 -165.939 0 
-246.079 -147.002 0 
-236.445 -200.475 0 
-294.192 -150.985 0 
-305.415 -158.381 0 
-179.718 -28.1352 0 
-234.816 -164.012 0 
-287.721 -125.245 0 
-278.208 -131.441 0 
-291.728 -154.372 0 
-188.422 85.5415 0 
-224.717 -154.449 0 
-263.039 -27.4459 0 
-224.631 -129.729 0 
-238.592 -187.859 0 
-201.724 -131.94 0 
-286.641 -88.9588 0 
-212.535 -120.414 0 
-232.42 -126.943 0 
-222.994 -111.166 0 
-200.89 -117.982 0 
-236.398 -21.7046 0 
-234.341 -88.6523 0 
-230.976 -124.197 0 
-259.128 -130.916 0 
-274.735 -128.752 0 
-207.28 -77.2203 0 
-264.033 -114.821 0 
-219.564 -64.6183 0 
-212.965 -85.6305 0 
-228.662 -126.654 0 
-214.511 -106.376 0 
-251.077 -87.7572 0 
-188.671 -75.6271 0 
-247.118 -239.716 0 
-233.293 -63.2572 0 
-283.69 -97.9846 0 
-228.278 150.117 0 
-259.01 -88.0875 0 
-246.1 39.3891 0 
-211.193 -37.2225 0 
-272.34 -59.7386 0 
-273.731 -51.736 0 
-209.257 51.6545 0 
-190.593 -71.9068 0 
-223.129 -29.3597 0 
-210.072 -64.7909 0 
-211.479 -49.2095 0 
-225.747 -68.9965 0 
-253.222 -185.702 0 
-245.867 -37.1718 0 
-212.897 -184.565 0 
-246.411 -70.2361 0 
-219.98 -163.818 0 
-256.27 -58.7171 0 
-243.839 -26.6718 0 
-208.058 -173.089 0 
-229.413 2.0512 0 
-224.515 -182.885 0 
-236.38 -125.33 0 
-216.988 -200.677 0 
-250.937 -32.6785 0 
-253.135 -38.7348 0 
-226.763 -150.122 0 
-192.341 -158.57 0 
-169.48 -32.4979 0 
-207.616 -31.2562 0 
-266.462 -158.127 0 
-232.784 -24.2422 0 
-202.856 -124.639 0 
-269.356 -127.064 0 
-224.559 25.0448 0 
-259.56 -44.2803 0 
-263.018 -189.828 0 
-260.217 -35.3589 0 
-215.381 -146.811 0 
-225.055 -159.111 0 
-275.757 -125.53 0 
-238.643 -163.141 0 
-229.252 -155.534 0 
-194.949 66.7758 0 
-240.741 -9.28634 0 
-242.4 -165.737 0 
-217.643 -180.207 0 
-230.481 -145.742 0 
-228.829 -130.041 0 
-270.995 -173.192 0 
-253.021 -62.8205 0 
-162.799 -100.276 0 
-193.049 12.2938 0 
-173.697 114.378 0 
-210.81 -113.026 0 
-226.494 -133.482 0 
-224.511 -78.9033 0 
-279.006 -127.53 0 
-246.363 -93.3233 0 
-252.359 -138.251 0 
-223.843 -95.405 0 
-150.043 111.444 0 
-212.357 -64.5749 0 
-235.199 -29.5216 0 
-284.807 -80.0001 0 
-264.957 -79.6385 0 
-205.786 -105.122 0 
-277.495 -59.2725 0 
-239.918 -134.948 0 
-251.365 -92.1086 0 
-220.445 -104.324 0 
-227.484 -86.5579 0 
-236.487 -92.3522 0 
-249.823 -123.096 0 
-240.931 -71.0153 0 
-196.884 -84.0018 0 
-209.785 -34.8312 0 
-255.763 -193.898 0 
-264.778 -99.1529 0 
-247.066 -76.0101 0 
-192.554 -183.603 0 
-210.95 -24.7322 0 
-270.273 -202.812 0 
-204.761 -29.4247 0 
-266.299 -129.81 0 
-202.022 -62.2513 0 
-239.444 -71.9175 0 
-201.169 46.1986 0 
-251.143 -156.835 0 
-192.79 -52.7765 0 
-268.865 -76.6126 0 
-252.631 -160.466 0 
-270.974 -109.412 0 
-223.933 -55.2151 0 
-291.281 -201.885 0 
-230.608 -177.916 0 
-254.963 -145.174 0 
-259.351 -166.224 0 
-277.844 -44.4051 0 
-192.406 -48.313 0 
-236.007 -167.748 0 
-274.884 -18.4367 0 
-251.443 -102.583 0 
-229.487 -199.811 0 
-254.888 -50.3141 0 
-221.201 -130.208 0 
-211.47 72.5141 0 
-242.289 -47.2007 0 
-255.019 -215.981 0 
-229.508 -76.2102 0 
-251.807 -135.049 0 
-245.502 -216.808 0 
-252.303 -163.836 0 
-271.736 -58.0369 0 
-215.006 -171.527 0 
-251.359 -200.637 0 
-264.649 -44.7065 0 
-200.722 -42.0151 0 
-235.357 -76.7297 0 
-259.122 -197.839 0 
-241.553 -77.0446 0 
-258.793 -193.436 0 
-252.145 -127.738 0 
-240.999 -178.863 0 
-268.352 -154.336 0 
-197.326 -173.839 0 
-259.15 -165.615 0 
-205.332 -39.6033 0 
-227.347 -169.153 0 
-250.324 -23.2456 0 
-241.364 13.0845 0 
-247.56 -160.435 0 
-238.653 -171.955 0 
-254.067 -171.703 0 
-204.142 80.2641 0 
-234.979 -143.802 0 
-176.038 -2.04504 0 
-261.431 -181.521 0 
-221.331 -36.5952 0 
-237.453 7.23631 0 
-271.912 -163.52 0 
-228.668 -135.022 0 
-238.609 -130.899 0 
-258.781 -132.099 0 
-273.588 -164.396 0 
-233.758 -1.80044 0 
-272.862 -159.779 0 
-314.147 -134.819 0 
-259.985 -151.456 0 
-225.679 16.4007 0 
-271.154 -154.577 0 
-264.789 -128.765 0 
-204.819 -127.816 0 
-187.156 -93.8313 0 
-193.788 67.4898 0 
-245.628 -110.237 0 
-142.536 101.402 0 
-246.324 -160.367 0 
-202.691 -98.5757 0 
-222.439 -109.55 0 
-233.922 -118.262 0 
-196.589 -22.7142 0 
-208.482 -134.841 0 
-240.207 -110.45 0 
-206.641 -104.002 0 
-241.848 -126.996 0 
-228.352 -142.578 0 
-231.153 -163.182 0 
-262.355 -145.021 0 
-245.239 33.2129 0 
-210.982 -147.702 0 
-201.751 -128.158 0 
-223.337 -114.43 0 
-245.426 -114.937 0 
-267.644 -145.444 0 
-229.068 -98.9953 0 
-255.905 -89.9815 0 
-186.734 -73.5371 0 
-212.397 -104.054 0 
-217.823 -89.4709 0 
-220.602 -102.795 0 
-230.266 -125.522 0 
-190.467 -99.7877 0 
-203.313 -29.0849 0 
-199.622 -65.0333 0 
-190.635 -85.3248 0 
-214.419 7.42283 0 
-201.223 -111.878 0 
-227.66 -117.922 0 
-242.462 -92.8621 0 
-270.513 -78.6989 0 
-257.637 -262.596 0 
-208.663 -66.3712 0 
-258.087 -59.041 0 
-227.843 -13.2324 0 
-228.943 -62.2412 0 
-235.908 -82.5583 0 
-213.621 -96.1654 0 
-195.592 -75.2185 0 
-211.344 -17.7051 0 
-245.243 -190.085 0 
-255.9 -250.91 0 
-217.55 -85.217 0 
-288.158 -101.206 0 
-229.33 -65.035 0 
-216.288 -86.4234 0 
-201.091 -94.5302 0 
-201.766 -92.2703 0 
-251.857 -120.723 0 
-257.282 -97.0355 0 
-214.12 -212.694 0 
-248.211 -223.665 0 
-211.85 -69.5193 0 
-239.759 -189.376 0 
-213.38 -220.548 0 
-245.219 -179.074 0 
-220.648 -186.872 0 
-181.803 -57.1369 0 
-202.008 -101.647 0 
-239.875 -82.984 0 
-218.026 36.3961 0 
-227.246 -207.32 0 
-222.367 -125.71 0 
-240.546 -181.985 0 
-255.662 -164.795 0 
-203.072 -190.335 0 
-223.044 -215.582 0 
-228.479 -196.03 0 
-250.333 -170.463 0 
-291.532 -235.611 0 
-217.451 -45.6177 0 
-273.432 -166.877 0 
-241.613 -61.2067 0 
-248.09 -180.649 0 
-212.882 -66.3379 0 
-234.893 -196.119 0 
-218.657 -177.866 0 
-224.958 -78.6666 0 
-253.551 -65.7294 0 
-234.075 -175.21 0 
-216.2 -86.7499 0 
-213.101 -205.868 0 
-208.205 -227.081 0 
-193.037 -62.9962 0 
-213.138 -198.561 0 
-245.337 -204.133 0 
-176.754 -159.804 0 
-214.625 -188.246 0 
-198.509 61.9171 0 
-237.097 -63.3244 0 
-252.519 -154.552 0 
-240.562 -208.887 0 
-229.402 -146.508 0 
-227.205 -194.919 0 
-245.294 -68.4264 0 
-236.287 -41.2786 0 
-243.82 -68.5935 0 
-252.683 -61.594 0 
-195.105 -77.2155 0 
-260.899 -205.464 0 
-178.745 62.0216 0 
-247.505 -207.993 0 
-243.549 -208.465 0 
-227.306 -165.882 0 
-239.569 -55.7829 0 
-256.556 -182.65 0 
-230.123 -18.3932 0 
-259.848 -135.742 0 
-195.795 -146.443 0 
-243.339 -178.804 0 
-225.563 -154.337 0 
-217.628 -192.197 0 
-185.25 47.9596 0 
-238.547 -179.397 0 
-246.799 -173.551 0 
-246.25 -180.661 0 
-135.654 59.6654 0 
-246.677 -182.812 0 
-189.657 54.8934 0 
-254.179 -186.483 0 
-208.444 -152.018 0 
-219.866 -17.0115 0 
-245.491 -43.6226 0 
-237.443 -172.27 0 
-272.07 -201.724 0 
-217.334 -184.134 0 
-264.094 -144.065 0 
-276.484 -214.194 0 
-283.029 -163.171 0 
-235.934 -166.502 0 
-215.289 -190.606 0 
-179.351 60.6806 0 
-264.108 -178.033 0 
-262.492 -17.8979 0 
-246.253 -211.127 0 
-185.99 -47.0136 0 
-220.787 -41.313 0 
-238.502 -190.518 0 
-203.516 -195.014 0 
-176.329 -168.983 0 
-231.589 -64.6996 0 
-238.869 -194.094 0 
-233.573 -184.657 0 
-229.792 -145.04 0 
-249.005 -160.208 0 
-295.792 -194.307 0 
-283.07 -204.947 0 
-276.131 -217.368 0 
-243.439 5.24788 0 
-231.288 -42.07 0 
-242.77 -192.189 0 
-196.154 -137.244 0 
-178.473 -158.487 0 
-279.686 -161.991 0 
-213.011 1.03587 0 
-232.259 -30.8761 0 
-270.537 -163.027 0 
-247.879 -39.7057 0 
-224.469 -163.275 0 
-207.678 -7.48667 0 
-231.915 -140.952 0 
-217.724 -24.1509 0 
-171.125 51.6264 0 
-199.122 62.9893 0 
-232.306 -136.965 0 
-218.384 86.6576 0 
-245.246 -166.969 0 
-225.688 -158.211 0 
-205.571 -185.097 0 
-242.901 -159.152 0 
-235.09 -167.01 0 
-271.465 -152.613 0 
-222.489 -33.9277 0 
-208.351 -44.9343 0 
-229.937 -78.4255 0 
-219.778 -125.458 0 
-188.124 16.3724 0 
-192.212 -123.575 0 
-236.937 14.0755 0 
-199.05 -121.368 0 
-236.782 -160.689 0 
-175.851 -118.955 0 
-218.043 -7.38521 0 
-227.979 -125.576 0 
-217.623 -105.138 0 
-259.914 -141.251 0 
-238.357 -178.335 0 
-259.292 -155.304 0 
-203.889 -155.706 0 
-218.052 -78.576 0 
-213.715 -116.888 0 
-250.191 -136.155 0 
-175.727 -39.2298 0 
-208.04 -3.28397 0 
-228.428 -20.8845 0 
-251.894 -131.736 0 
-216.666 -167.046 0 
-190.413 -134.033 0 
-254.124 -117.022 0 
-235.139 -109.386 0 
-206.891 -117.738 0 
-233.934 -97.0042 0 
-225.538 -165.982 0 
-243.527 -156.329 0 
-227.283 -117.267 0 
-291.879 -146.579 0 
-251.928 -130.597 0 
-243.051 -154.061 0 
-247.539 -126.067 0 
-249.722 -109.083 0 
-181.357 -114.423 0 
-224.754 -5.32641 0 
-225.201 -278.358 0 
-172.11 -97.931 0 
-211.421 10.773 0 
-169.487 -21.0507 0 
-177.479 -130.381 0 
-232.136 -100.628 0 
-174.132 -6.87023 0 
-235.328 -120.981 0 
-207.999 -115.468 0 
-226.064 -136.35 0 
-281.265 -138.542 0 
-270.733 -99.2417 0 
-186.982 -116.315 0 
-229.513 -101.79 0 
-292.748 -130.223 0 
-203.848 -95.3043 0 
-214.248 -75.3742 0 
-239.423 -219.882 0 
-274.992 -265.562 0 
-220.59 -87.7446 0 
-280.961 -103.6 0 
-201.312 -101.971 0 
-208.528 -50.4376 0 
-202.328 -89.5362 0 
-199.818 -96.6528 0 
-205.335 -208.377 0 
-215.663 36.3515 0 
-225.356 -93.0176 0 
-209.477 -135.879 0 
-272.507 -124.477 0 
-213.041 -53.2043 0 
-260.274 -47.0631 0 
-194.097 -100.503 0 
-257.696 -141.638 0 
-246.611 -0.422495 0 
-252.667 -100.347 0 
-235.673 -83.5241 0 
-214.848 -114.318 0 
-237.752 -109.131 0 
-200.912 -47.7939 0 
-192.381 -113.903 0 
-240.743 -76.5539 0 
-221.028 -210.535 0 
-162.667 -170.172 0 
-162.665 -94.2595 0 
-228.641 -187.332 0 
-225.243 -97.1444 0 
-216.635 -184.86 0 
-202.532 -185.702 0 
-212.713 -96.3142 0 
-239.671 -73.3097 0 
-238.618 -70.1197 0 
-235.995 -192.088 0 
-186.589 -55.6199 0 
-219.85 -67.5689 0 
-255.653 -30.4827 0 
-203.123 -207.394 0 
-245.725 -86.6406 0 
-189.911 -51.4249 0 
-218.001 -75.5564 0 
-227.555 -217.73 0 
-202.218 -216.276 0 
-202.133 -100.777 0 
-182.167 -71.1952 0 
-196.688 -112.727 0 
-210.766 -227.723 0 
-215.629 -84.0109 0 
-231.717 -228.578 0 
-253.531 -229.433 0 
-229.802 -193.749 0 
-220.6 -217.121 0 
-259.014 -192.184 0 
-248.603 -202.887 0 
-206.605 -90.6995 0 
-235.775 -59.4364 0 
-284.836 -203.283 0 
-261.256 -221.715 0 
-255.864 -71.596 0 
-239.439 -110.21 0 
-228.293 -203.76 0 
-178.094 67.1379 0 
-216.758 -90.6498 0 
-254.584 -191.98 0 
-248.666 -52.9251 0 
-226.875 -175.786 0 
-222.378 -192.712 0 
-222.224 -194.954 0 
-266.875 -146.329 0 
-235.273 -211.472 0 
-246.574 -148.288 0 
-224.598 -186.904 0 
-185.949 -221.084 0 
-158.46 -46.6158 0 
-250.275 -168.448 0 
-282.503 -106.848 0 
-256.543 -184.104 0 
-182.451 -43.2918 0 
-217.276 -83.7146 0 
-250.476 -189.343 0 
-243.565 -63.1886 0 
-241.223 -159.342 0 
-254.412 -58.2112 0 
-245.914 -229.794 0 
-228.767 -181.385 0 
-248.4 -167.939 0 
-213.37 -93.0692 0 
-225.787 -86.5485 0 
-205.559 -145.556 0 
-266.183 -143.091 0 
-224.814 -165.785 0 
-231.451 -158.948 0 
-218.291 -51.5612 0 
-238.718 -163.389 0 
-244.011 -205.079 0 
-214.389 1.16792 0 
-201.373 -157.636 0 
-197.423 -202.302 0 
-247.365 -200.435 0 
-225.734 -203.765 0 
-239.445 -195.393 0 
-195.389 -40.7192 0 
-261.174 -184.028 0 
-140.585 68.4904 0 
-211.891 -2.82874 0 
-259.375 -173.078 0 
-231.77 -173.34 0 
-229.825 -153.691 0 
-234.595 -152.393 0 
-241.814 -194.998 0 
-195.7 -2.9718 0 
-273.758 -162.887 0 
-220.408 -204.379 0 
-187.915 -194.121 0 
-184.444 -184.709 0 
-226.081 -8.94058 0 
-227.275 -187.88 0 
-239.405 -16.2068 0 
-244.337 -1.89042 0 
-233.127 -186.995 0 
-198.957 62.3585 0 
-231.233 -135.603 0 
-210.362 -175.676 0 
-227.44 -189.812 0 
-239.029 6.92152 0 
-227.89 -194.71 0 
-277.08 -174.153 0 
-271.252 -185.261 0 
-201.093 -185.363 0 
-199.541 -166.574 0 
-191.631 -151.534 0 
-229.344 -35.041 0 
-241.358 -171.498 0 
-196.571 -190.87 0 
-218.485 -143.815 0 
-215.899 -144.767 0 
-221.463 -136.082 0 
-268.403 -155.614 0 
-188.052 -36.9611 0 
-227.022 -131.647 0 
-217.894 2.41549 0 
-188.861 -188.154 0 
-199.958 -148.916 0 
-220.278 -121.38 0 
-217.489 -163.303 0 
-195.288 -123.244 0 
-222.336 -176.419 0 
-265.043 -179.431 0 
-175.195 96.5121 0 
-254.194 -148.431 0 
-269.166 -140.853 0 
-258.028 -134.178 0 
-264.728 -151.033 0 
-211.402 -148.905 0 
-251.192 -119.919 0 
-192.021 -153.768 0 
-255.336 -145.674 0 
-194.6 -15.6337 0 
-212.837 -23.0002 0 
-209.555 -115.849 0 
-220.487 -122.822 0 
-236.295 -124.139 0 
-202.609 -159.109 0 
-162.109 -28.0221 0 
-234.266 -145.004 0 
-196.151 -182.237 0 
-201.692 -135.572 0 
-222.37 -164.165 0 
-273.851 -111.761 0 
-240.413 -154.452 0 
-189.953 -166.949 0 
-201.651 -162.857 0 
-229.09 -134.054 0 
-267.268 -180.109 0 
-247.211 -146.559 0 
-222.664 -135.405 0 
-256.79 -161.374 0 
-260.193 -143.389 0 
-251.629 -136.685 0 
-223.063 -245.779 0 
-184.053 -164.283 0 
-243.456 -229.665 0 
-227.794 -128.728 0 
-154.273 -53.7849 0 
-263.008 -127.389 0 
-279.086 -136.827 0 
-250.987 -113.351 0 
-234.502 -143.805 0 
-234.604 -129.331 0 
-188.486 -136.094 0 
-203.152 101.819 0 
-239.519 -150.341 0 
-193.63 -20.2988 0 
-250.886 -129.647 0 
-223.167 -157.437 0 
-216.98 -102.081 0 
-184.62 112.939 0 
-229.82 -158.694 0 
-223.739 -152.909 0 
-224.054 -134.499 0 
-197.479 -145.56 0 
-254.608 -233.087 0 
-289.722 -128.221 0 
-218.907 -158.319 0 
-183.523 -122.201 0 
-241.552 -139.379 0 
-223.719 -127.373 0 
-201.275 4.57731 0 
-214.761 -160.873 0 
-251.484 -116.327 0 
-232.443 -43.4101 0 
-177.086 103.822 0 
-177.754 119.456 0 
-234.579 -126.941 0 
-232.237 -115.752 0 
-225.127 -112.987 0 
-238.859 -120.05 0 
-269.018 -100.293 0 
-191.063 -243.65 0 
-211.873 -22.1204 0 
-213.434 -52.5557 0 
-241.332 -145.207 0 
-177.582 -1.26714 0 
-247.977 -140.101 0 
-176.232 -112.608 0 
-276.522 -123.561 0 
-194.166 -116.265 0 
-222.724 -103.677 0 
-207.066 -93.5817 0 
-248.351 -106.8 0 
-269.18 -73.742 0 
-242.237 -215.599 0 
-211.326 -207.436 0 
-277.603 -239.74 0 
-257.5 -277.829 0 
-224.44 -33.4275 0 
-269.166 -89.2586 0 
-248.015 -130.906 0 
-230.742 -247.875 0 
-234.606 -236.743 0 
-244.215 -96.1003 0 
-184.04 -112.299 0 
-192.154 -72.6847 0 
-236.253 -91.9793 0 
-242.159 -129.514 0 
-201.355 -78.0348 0 
-216.244 -71.1209 0 
-250.581 -81.9494 0 
-250.64 -61.2879 0 
-195.375 -227.012 0 
-255.372 -240.034 0 
-233.492 -203.275 0 
-167.424 44.1968 0 
-244.845 -121.434 0 
-269.266 -112.16 0 
-217.341 -81.874 0 
-230.866 -216.892 0 
-245.345 -222.622 0 
-220.567 -94.0688 0 
-201.35 -94.688 0 
-183.692 39.1715 0 
-215.994 -86.8032 0 
-287.948 -232.321 0 
-195.089 -96.3628 0 
-225.793 -74.7957 0 
-221.532 -63.5079 0 
-232.815 -60.7062 0 
-240.169 -106.769 0 
-221.78 -60.5822 0 
-166.556 -69.5403 0 
-203.174 -57.0712 0 
-227.235 -66.8328 0 
-181.035 -213.843 0 
-186.244 -117.947 0 
-240.075 -205.359 0 
-211.384 -224.551 0 
-255.483 -204.991 0 
-191.223 -184.196 0 
-203.441 -134.945 0 
-242.107 -224.469 0 
-252.365 -235.978 0 
-272.905 -86.804 0 
-211.442 -214.527 0 
-234.658 -85.1763 0 
-195.808 -212.306 0 
-205.684 -42.7054 0 
-199.73 -115.792 0 
-167.236 -67.4854 0 
-189.309 -103.301 0 
-223.162 -79.7638 0 
-212.991 -218.912 0 
-209.379 -94.102 0 
-227.029 -48.1432 0 
-253.853 -101.139 0 
-216.766 -123.334 0 
-196.805 -45.2177 0 
-194.896 -81.1656 0 
-235.259 -216.257 0 
-245.574 -176.747 0 
-228.998 -179.133 0 
-219.688 -71.7632 0 
-217.522 -226.292 0 
-229.357 -92.8946 0 
-235.393 -192.839 0 
-227.603 -171.44 0 
-204.842 -118.311 0 
-221.324 -73.5083 0 
-198.114 -239.301 0 
-185.182 -73.7173 0 
-261.247 -67.2491 0 
-242.69 -109.702 0 
-130.46 52.7895 0 
-208.568 -64.7572 0 
-191.962 -76.8074 0 
-244.952 -76.3132 0 
-215.351 -193.45 0 
-209.855 -216.37 0 
-198.063 -189.755 0 
-224.4 -151.822 0 
-217.496 -168.632 0 
-249.309 -211.47 0 
-241.378 -215.863 0 
-269.867 -187.078 0 
-247.861 -181.724 0 
-224.811 -109.134 0 
-255.217 -120.746 0 
-196.177 -205.199 0 
-167.37 18.6123 0 
-244.228 -101.288 0 
-222.237 -81.2981 0 
-154.804 -48.2192 0 
-216.547 -222.634 0 
-212.729 -51.6203 0 
-252.375 -162.338 0 
-224.734 -204.917 0 
-233.862 -169.642 0 
-264.627 -191.648 0 
-227.598 -178.327 0 
-207.626 -144.003 0 
-165.061 -215.686 0 
-193.539 -71.1331 0 
-215.702 -69.5294 0 
-212.46 -191.371 0 
-196.889 -191.267 0 
-251.597 -201.296 0 
-226.989 -75.7137 0 
-233.28 -62.1074 0 
-222.86 -70.6655 0 
-269.464 -184.76 0 
-234.55 -212.677 0 
-238 -57.839 0 
-235.219 -60.0657 0 
-222.981 -174.582 0 
-210.838 -187.322 0 
-204.072 -9.14705 0 
-238.596 -192.158 0 
-239.785 -177.725 0 
-220.775 -59.3861 0 
-242.256 -84.6852 0 
-255.856 -212.058 0 
-232.571 -187.067 0 
-164.878 -203.377 0 
-225.671 -167.501 0 
-248.638 -195.941 0 
-230.34 -118.006 0 
-205.99 -187 0 
-232.939 -168.689 0 
-260.394 -168.865 0 
-245.354 -159.808 0 
-152.992 82.4157 0 
-217.455 -64.2788 0 
-266.188 -155.587 0 
-229.209 -167.482 0 
-214.757 -204.527 0 
-194.705 -168.547 0 
-221.181 -89.0506 0 
-218.504 -166.738 0 
-249.31 -59.5837 0 
-235.228 -53.9666 0 
-222.42 -57.6836 0 
-180.736 -70.8511 0 
-217.674 -62.7868 0 
-209.799 -205.804 0 
-244.645 -162.28 0 
-217.72 -186.747 0 
-245.853 -188.649 0 
-210.48 -201.302 0 
-213.799 -173.811 0 
-214.394 -56.7676 0 
-233.47 -15.4647 0 
-227.655 -161.225 0 
-171.161 -164.618 0 
-248.838 -185.93 0 
-193.042 -66.1347 0 
-257.472 -166.626 0 
-220.055 -196.744 0 
-197.973 -63.1998 0 
-197.627 -157.284 0 
-223.25 -41.4818 0 
-163.466 -66.7491 0 
-217.538 -171.921 0 
-242.347 -46.5864 0 
-214.495 -182.374 0 
-273.127 -185.921 0 
-224.159 -146.191 0 
-216.711 -172.844 0 
-263.364 -158.703 0 
-238.04 -156.476 0 
-219.518 -138.102 0 
-251.843 -104.595 0 
-279.272 -159.859 0 
-184.076 -28.5205 0 
-194.636 -181.825 0 
-268.557 -34.2641 0 
-183.602 -162.223 0 
-258.35 -28.3167 0 
-224.224 -134.556 0 
-230.651 -164.043 0 
-217.088 -139.46 0 
-226.728 -18.0482 0 
-225.746 -198.879 0 
-240.971 -128.241 0 
-206.999 -62.0234 0 
-188.341 -143.157 0 
-171.73 -176.754 0 
-237.838 -173.908 0 
-215.974 -27.2618 0 
-242.826 -177.5 0 
-246.907 -149.897 0 
-230.502 -140.305 0 
-214.612 -157.47 0 
-237.026 -156.972 0 
-263.748 -151.39 0 
-206.22 -102.594 0 
-233.68 -162.163 0 
-236.965 -157.13 0 
-263.256 -220.598 0 
-237.322 -158.15 0 
-263.145 -173.596 0 
-147.963 27.7362 0 
-232.375 -9.77303 0 
-219.694 -154.909 0 
-251.576 -195.111 0 
-239.656 -123.372 0 
-205.501 -171.907 0 
-210.427 -41.7037 0 
-229.345 -168.548 0 
-224.951 -153.649 0 
-243.644 -133.187 0 
-236.935 -137.171 0 
-223.151 -134.447 0 
-221.993 -171.865 0 
-240.484 -115.272 0 
-251.253 -100.582 0 
-241.679 -134.777 0 
-276.772 -130.823 0 
-260.655 -15.6807 0 
-210.949 -144.586 0 
-244.608 -181.899 0 
-188.52 5.43165 0 
-232.896 -126.181 0 
-218.735 -165.411 0 
-160.96 71.8975 0 
-183.977 -49.943 0 
-191.233 -150.08 0 
-267.965 28.2492 0 
-221.493 -200.341 0 
-233.182 -152.446 0 
-241.574 -134.238 0 
-175.739 -8.46648 0 
-254.967 -154.498 0 
-226.949 -193.957 0 
-262.707 -146.746 0 
-180.448 -155.772 0 
-229.278 -143.393 0 
-177.088 60.0373 0 
-239.088 -106.918 0 
-221.405 -109.624 0 
-199.02 -132.547 0 
-219.397 -182.225 0 
-253.616 -149.261 0 
-222.932 -140.071 0 
-218.68 -105.39 0 
-246.851 -145.576 0 
-243.561 -141.035 0 
-250.404 -136.664 0 
-162.048 101.811 0 
-153.771 -85.701 0 
-196.036 -157.137 0 
-259.032 -166.88 0 
-226.778 -162.604 0 
-212.144 -141.597 0 
-208.25 -160.79 0 
-175.02 13.8867 0 
-205.88 -143.579 0 
-276.835 -243.278 0 
-190.517 -120.791 0 
-214.363 -99.6956 0 
-249.824 -146.389 0 
-234.501 -151.999 0 
-185.021 -126.116 0 
-252.672 -123.814 0 
-243.082 -141.578 0 
-213.853 -131.299 0 
-216.997 -118.566 0 
-237.401 -119.673 0 