<VTKFile type="UnstructuredGrid" version="0.1" byte_order="BigEndian">
  <UnstructuredGrid>
        <Piece NumberOfPoints="8000" NumberOfCells="0" Time= "0.11">      <Points>
        <DataArray name="Position" type="Float32"  NumberOfComponents= "3"  format="ascii">

109.336 11.9656 0 
109.411 16.8713 0 
109.083 14.9021 0 
109.3 19.4493 0 
108.991 17.734 0 
109.283 19.373 0 
108.582 18.3521 0 
109.494 19.6529 0 
109.041 17.8429 0 
109.233 21.4906 0 
108.686 20.5641 0 
109.206 21.449 0 
108.658 20.4337 0 
109.247 22.1387 0 
108.581 20.2743 0 
109.242 22.4663 0 
108.68 20.5286 0 
109.585 22.4367 0 
109.098 20.8562 0 
109.116 20.9568 0 
109.304 22.3883 0 
109.268 21.8767 0 
109.31 24.6859 0 
111.38 9.47007 0 
111.479 9.48299 0 
111.306 9.47263 0 
111.472 8.96756 0 
111.747 9.79414 0 
110.815 9.67243 0 
111.102 9.83584 0 
110.61 10.2939 0 
111.754 12.1391 0 
111.777 9.98538 0 
110.647 10.1221 0 
110.635 11.6948 0 
111.134 9.78696 0 
112.086 10.1155 0 
112.01 10.3271 0 
110.669 10.0687 0 
110.68 10.1094 0 
111.537 9.62936 0 
110.927 10.0211 0 
111.053 9.94924 0 
110.827 11.6032 0 
111.191 10.0322 0 
111.011 10.4286 0 
111.013 10.4098 0 
111.54 9.91122 0 
111.092 10.3453 0 
110.839 9.70069 0 
111.837 11.9005 0 
111.66 9.95267 0 
111.807 9.55152 0 
110.746 10.0353 0 
111.089 10.2025 0 
110.6 10.2238 0 
110.656 11.6892 0 
111.921 10.2245 0 
110.988 10.1176 0 
110.119 10.7828 0 
111.439 11.3474 0 
111.69 12.6946 0 
111.729 12.5573 0 
111.543 13.9051 0 
111.94 12.7435 0 
112.057 12.9302 0 
111.647 14.0396 0 
111.006 13.6569 0 
111.19 14.3859 0 
110.579 14.5785 0 
112.033 13.5958 0 
111.908 14.669 0 
111.902 13.2364 0 
111.387 14.3402 0 
111.491 14.1525 0 
111.623 13.7176 0 
111.291 14.7014 0 
112.057 13.1573 0 
111.712 13.796 0 
110.648 13.8816 0 
111.746 12.6036 0 
112.065 12.7917 0 
111.67 12.9145 0 
110.788 13.6254 0 
111.663 12.7085 0 
112.104 12.5698 0 
110.312 14.4858 0 
111.445 14.2659 0 
111.847 12.4115 0 
111.895 12.5749 0 
110.575 14.7449 0 
111.675 12.3317 0 
110.43 14.7157 0 
110.714 14.3074 0 
111.707 13.7679 0 
110.758 14.5297 0 
111.982 12.9348 0 
111.67 13.9157 0 
110.739 13.4881 0 
111.556 13.7596 0 
111.986 12.712 0 
111.999 13.7079 0 
110.507 14.7049 0 
111.945 13.4207 0 
111.414 13.0024 0 
110.652 14.3709 0 
111.637 14.2774 0 
111.691 12.6295 0 
110.636 13.8887 0 
111.585 12.5298 0 
110.748 14.5451 0 
111.217 13.7934 0 
112.006 13.9895 0 
111.749 14.2184 0 
111.218 13.2134 0 
110.984 14.3801 0 
110.346 14.3319 0 
112.245 12.6675 0 
111.065 12.2238 0 
110.36 14.6575 0 
110.555 13.5741 0 
111.693 14.0683 0 
110.834 12.5424 0 
111.874 13.2752 0 
110.613 14.7962 0 
111.918 16.493 0 
112.06 15.8209 0 
111.451 16.3208 0 
112.221 16.8274 0 
111.752 15.2908 0 
111.389 15.8089 0 
111.886 16.9587 0 
109.916 15.7084 0 
111.371 15.7875 0 
110.956 16.7634 0 
109.679 17.4903 0 
112.136 15.714 0 
112.201 16.2047 0 
111.089 14.8031 0 
111.722 16.2056 0 
111.126 15.902 0 
112.11 16.2687 0 
111.711 17.408 0 
112.142 16.2213 0 
111.762 16.2916 0 
111.744 16.8186 0 
110.818 14.8157 0 
111.093 16.0978 0 
111.484 16.4498 0 
112.075 15.6316 0 
111.115 15.345 0 
112.072 16.0938 0 
111.993 15.9964 0 
112.004 16.3421 0 
111.867 15.8051 0 
111.969 16.7959 0 
110.935 15.8493 0 
110.953 15.1941 0 
111.69 15.7864 0 
112.205 16.5098 0 
111.172 16.2106 0 
110.496 16.1732 0 
111.627 16.8852 0 
111.704 15.8904 0 
111.858 15.2527 0 
110.046 15.782 0 
111.285 15.9666 0 
112.167 17.0678 0 
110.843 15.1322 0 
112.213 16.5176 0 
111.717 16.1274 0 
110.52 14.8488 0 
111.179 15.9871 0 
111.871 15.9261 0 
112.126 16.2845 0 
111.818 15.8907 0 
110.873 15.285 0 
111.965 17.2774 0 
112.17 17.091 0 
110.287 16.1266 0 
111.25 15.6707 0 
111.797 16.0081 0 
111.852 15.1469 0 
111.36 16.1001 0 
111.15 15.3482 0 
111.644 16.0689 0 
111.631 16.996 0 
111.076 16.0124 0 
111.12 15.2245 0 
112.043 16.2092 0 
111.672 15.949 0 
111.215 15.3366 0 
112.149 17.1505 0 
111.485 16.1435 0 
111.59 15.8821 0 
111.636 16.1559 0 
112.251 16.7664 0 
111.864 16.9188 0 
111.927 16.7854 0 
110.913 15.382 0 
112.119 16.3095 0 
110.991 16.5965 0 
111.206 16.1509 0 
111.951 15.1625 0 
111.177 16.3155 0 
110.945 16.0039 0 
111.983 16.7987 0 
112.026 16.0129 0 
111.905 15.0903 0 
111.721 15.7232 0 
111.645 15.5979 0 
111.56 15.3002 0 
110.181 16.07 0 
111.367 15.7872 0 
111.17 15.3579 0 
111.198 16.2856 0 
111.574 15.8669 0 
111.759 15.928 0 
111.986 15.7206 0 
111.02 15.7902 0 
111.746 15.8135 0 
111.488 16.1929 0 
110.879 15.2807 0 
111.96 15.7381 0 
111.002 15.5671 0 
112.14 16.9126 0 
111.904 14.9087 0 
110.411 15.9399 0 
111.096 16.1924 0 
111.868 14.9192 0 
111.895 16.6476 0 
110.439 16.8545 0 
109.755 20.2905 0 
112.017 20.1878 0 
111.538 19.1448 0 
112.072 19.584 0 
111.463 19.4962 0 
112.085 19.7402 0 
112.02 17.4169 0 
110.105 19.6975 0 
111.436 19.2816 0 
111.958 19.1989 0 
111.818 19.6186 0 
111.612 19.2721 0 
111.316 19.2748 0 
112.16 17.6679 0 
110.943 19.3721 0 
111.668 19.2776 0 
110.06 18.5898 0 
111.883 20.1513 0 
110.219 19.8497 0 
111.032 19.3669 0 
112.032 19.7617 0 
111.557 18.8198 0 
109.627 21.9984 0 
111.409 20.1664 0 
111.734 21.9182 0 
111.739 21.7843 0 
112.143 21.5776 0 
111.597 20.4025 0 
109.791 21.5612 0 
111.734 22.3234 0 
110.289 22.5063 0 
111.824 21.7002 0 
111.752 21.7862 0 
109.845 21.6732 0 
109.778 22.19 0 
109.778 22.528 0 
109.867 22.4863 0 
109.89 21.6498 0 
110.49 20.9276 0 
111.522 20.3628 0 
110.337 22.3754 0 
112.043 21.6775 0 
111.538 21.5113 0 
111.025 20.2523 0 
110.644 21.2374 0 
111.215 22.0886 0 
112.063 23.8753 0 
112.047 23.7621 0 
112.104 23.5161 0 
110.844 23.013 0 
112.089 23.4113 0 
111.991 23.9611 0 
109.956 23.003 0 
112.06 23.5227 0 
111.291 23.1487 0 
112.056 23.7646 0 
110.891 23.7101 0 
111.184 23.1068 0 
110.533 23.5871 0 
111.181 23.0968 0 
111.232 23.0137 0 
111.045 23.0888 0 
111.369 23.0804 0 
111.931 23.9105 0 
111.772 23.8362 0 
112.065 23.9272 0 
112.125 23.6491 0 
110.934 25.4175 0 
111.94 25.4156 0 
110.166 24.1596 0 
111.293 23.0186 0 
112.052 23.5252 0 
111.726 25.3827 0 
112.066 23.8044 0 
110.569 23.6067 0 
111.219 23.0861 0 
112.064 23.7699 0 
111.236 23.1708 0 
112.031 23.4962 0 
112.022 24.0339 0 
111.929 23.3755 0 
110.436 25.9165 0 
111.528 25.914 0 
111.281 25.8796 0 
113.228 9.00147 0 
114.163 9.02635 0 
113.992 11.6897 0 
113.386 11.7115 0 
113.997 11.4065 0 
113.397 11.6768 0 
113.307 10.6675 0 
113.772 11.9058 0 
113.997 11.4294 0 
113.161 11.5355 0 
113.902 11.4307 0 
112.871 11.895 0 
113.599 10.3883 0 
113.69 12.2933 0 
113.74 10.2021 0 
113.583 9.84576 0 
113.541 11.7012 0 
114.423 12.0106 0 
114.548 12.1469 0 
113.84 11.731 0 
112.535 11.7094 0 
114.043 11.7448 0 
113.721 9.72511 0 
112.133 9.65774 0 
113.762 10.0844 0 
113.21 9.58699 0 
113.833 11.6085 0 
113.805 11.9055 0 
113.154 11.9409 0 
113.569 10.4863 0 
113.708 11.7463 0 
113.402 11.7437 0 
113.154 12.0074 0 
112.521 11.6182 0 
114.744 11.5595 0 
113.565 9.86122 0 
113.196 10.6186 0 
113.381 11.7001 0 
113.723 11.6527 0 
112.272 11.4185 0 
114.194 10.5118 0 
112.686 9.67538 0 
113.543 11.9488 0 
114.122 12.2025 0 
114.707 11.2385 0 
113.963 11.9439 0 
112.374 11.8067 0 
113.735 11.7336 0 
113.662 12.2682 0 
113.948 11.8863 0 
112.212 9.74012 0 
113.984 11.6218 0 
113.517 11.6992 0 
112.612 11.7126 0 
113.501 11.6747 0 
112.453 11.8836 0 
114.264 11.9488 0 
113.029 11.3504 0 
114.125 11.6963 0 
112.589 11.6249 0 
113.105 9.67297 0 
112.57 11.6201 0 
114.007 11.522 0 
113.419 11.8293 0 
113.607 11.6393 0 
112.73 9.60901 0 
112.578 9.5381 0 
112.114 10.0462 0 
114.589 11.864 0 
113.872 11.9127 0 
113.713 11.877 0 
112.953 11.6793 0 
113.317 11.6534 0 
114.415 12.0302 0 
112.955 10.7015 0 
112.722 11.7874 0 
112.989 11.5495 0 
113.366 11.6833 0 
114.221 11.6014 0 
112.886 13.8843 0 
114.401 14.6736 0 
112.98 13.0407 0 
113.047 13.6596 0 
112.729 13.0014 0 
112.851 13.8865 0 
113.319 12.7335 0 
113.239 12.8302 0 
113.539 12.9395 0 
113.564 14.0484 0 
114.058 12.3866 0 
114.012 12.9028 0 
114.427 13.9792 0 
113.192 13.079 0 
113.185 13.3019 0 
112.395 12.7368 0 
114.559 12.1802 0 
114.698 13.4673 0 
114.691 12.5974 0 
114.331 14.6155 0 
113.239 14.6296 0 
114.644 12.8427 0 
112.461 13.4239 0 
112.852 12.5209 0 
112.686 14.6101 0 
113.459 13.3078 0 
112.241 14.4281 0 
112.784 13.0106 0 
113.316 13.285 0 
113.076 12.8877 0 
112.64 13.9277 0 
112.268 13.1901 0 
113.029 13.6545 0 
114.376 14.7053 0 
114.633 12.7249 0 
112.639 14.7487 0 
112.859 12.3638 0 
114.586 12.0934 0 
114.386 14.7992 0 
114.696 14.3189 0 
112.801 13.1042 0 
114.466 12.3151 0 
112.911 13.074 0 
112.472 12.955 0 
113.793 13.0026 0 
112.854 13.0387 0 
112.697 13.145 0 
114.012 12.673 0 
113.099 13.3175 0 
112.583 13.3891 0 
113.726 12.8679 0 
113.192 14.5467 0 
113.843 12.45 0 
112.368 13.8449 0 
112.736 13.876 0 
113.103 13.1033 0 
114.453 12.4708 0 
114.141 13.6201 0 
113.017 13.1427 0 
113.904 12.4425 0 
113.676 12.4795 0 
112.426 12.9577 0 
112.61 14.4343 0 
112.384 13.8312 0 
112.699 13.9923 0 
112.97 13.6827 0 
112.856 13.8608 0 
114.085 13.1179 0 
114.2 14.6115 0 
114.417 12.1972 0 
113.049 12.1844 0 
113.847 14.4511 0 
113.035 13.6069 0 
112.453 12.5221 0 
114.683 13.7615 0 
112.803 13.146 0 
114.475 14.4905 0 
112.67 13.2051 0 
113.858 14.4569 0 
112.684 14.5276 0 
113.274 12.5111 0 
112.596 13.0654 0 
112.674 13.0279 0 
113.575 13.1264 0 
113.184 13.3713 0 
114.469 14.0985 0 
113.124 12.7199 0 
113.051 13.6611 0 
113.143 13.2437 0 
113.04 14.4568 0 
113.409 12.5755 0 
112.552 14.3311 0 
112.67 13.0117 0 
112.457 13.457 0 
113.935 14.0336 0 
113.488 12.4263 0 
112.327 13.312 0 
113.143 12.4918 0 
114.178 13.0642 0 
113.696 12.3106 0 
113.557 12.3047 0 
112.16 13.4041 0 
113.095 13.3585 0 
112.725 14.6842 0 
112.694 13.0046 0 
112.509 12.7772 0 
113.87 12.7598 0 
112.933 13.3341 0 
113.535 14.6588 0 
114.398 13.9015 0 
114.507 12.9266 0 
112.382 12.2469 0 
114.764 13.4961 0 
114.544 12.1737 0 
112.713 14.7915 0 
113.734 12.467 0 
114.369 14.7309 0 
114.025 12.5707 0 
113.07 12.4409 0 
112.465 12.9899 0 
112.649 13.0695 0 
113.266 13.3221 0 
[...]
      <PointData Vectors="vector">
        <DataArray type="Float32" Name="Velocity" NumberOfComponents="3" format="ascii">

-102.127 -15.1165 0 
-100.742 -38.4762 0 
-76.1101 -26.835 0 
-103.279 20.9962 0 
-84.3751 -16.184 0 
-107.156 18.5733 0 
-109.192 38.9032 0 
-106.964 14.07 0 
-106.178 56.1201 0 
-80.9115 -0.673498 0 
-103.604 42.8474 0 
-99.6994 54.2398 0 
-106.219 7.08429 0 
-79.5518 74.9666 0 
-101.905 71.2642 0 
-99.8633 45.2477 0 
-82.835 68.5527 0 
-106.464 6.55502 0 
-99.9769 88.0041 0 
-106.574 7.06935 0 
-84.6224 75.3066 0 
-99.6104 94.9974 0 
-106.426 6.93164 0 
-73.7394 83.6053 0 
-74.0426 104.978 0 
-80.5646 100.443 0 
-84.6282 82.7834 0 
-97.9193 39.4394 0 
-92.2368 49.0384 0 
-100.282 95.3187 0 
-104.513 68.9256 0 
-69.0712 96.8369 0 
-69.4722 69.8137 0 
-74.333 104.987 0 
-99.0967 -88.0884 0 
-79.673 -79.3063 0 
-54.3133 -95.9118 0 
-55.7092 -77.3285 0 
-92.9398 -90.0402 0 
-59.4207 -81.3233 0 
-66.1672 -93.3492 0 
-60.6295 -89.7606 0 
-80.055 -94.1436 0 
-55.3722 -71.811 0 
-85.3323 -94.6946 0 
-101.95 -89.7291 0 
-80.9635 -78.3392 0 
-98.8831 -87.3324 0 
-98.3252 -98.6295 0 
-59.7508 -97.2729 0 
-48.5304 -109.509 0 
-65.2998 -78.2986 0 
-95.0183 -48.4709 0 
-69.3734 -71.4212 0 
-53.3971 -25.822 0 
-77.399 -85.3732 0 
-69.7523 -79.6322 0 
-72.7829 -77.542 0 
-70.7084 -72.0441 0 
-73.3267 -70.6492 0 
-99.988 -35.6902 0 
-65.7536 -27.4287 0 
-94.5582 -47.2765 0 
-97.1311 -91.0536 0 
-66.5821 -79.767 0 
-70.4557 -48.3104 0 
-71.8353 -49.7266 0 
-51.8379 -52.3757 0 
-38.3418 -70.8024 0 
-66.4307 -50.1519 0 
-105.519 -80.8288 0 
-80.9263 -68.9904 0 
-63.9515 -54.517 0 
-64.4124 -79.1278 0 
-56.5957 -28.5952 0 
-82.0248 -78.9319 0 
-55.258 -67.793 0 
-80.9751 -87.1909 0 
-83.3686 -88.3306 0 
-60.3795 -72.8541 0 
-69.7306 -66.7637 0 
-84.2861 -66.5381 0 
-105.962 -50.26 0 
-98.006 -43.2188 0 
-89.212 -55.4251 0 
-77.9867 -26.7124 0 
-78.5353 -40.7418 0 
-76.8035 -79.4942 0 
-106.56 -48.6898 0 
-82.731 -69.6473 0 
-82.7559 -55.1667 0 
-99.4895 -20.6425 0 
-99.2471 -59.49 0 
-84.9029 -57.8229 0 
-95.1088 -50.3265 0 
-100.86 -47.6898 0 
-53.5644 -68.9381 0 
-62.7889 -62.0265 0 
-109.271 -50.0108 0 
-99.7073 -63.7938 0 
-80.3422 -55.6892 0 
-108.329 -54.9519 0 
-98.2203 -58.6339 0 
-87.7651 -59.0091 0 
-79.4808 -78.3238 0 
-58.6148 -75.5507 0 
-96.5608 -69.3406 0 
-74.3392 6.41722 0 
-97.1539 -47.2144 0 
-79.4463 -80.7125 0 
-93.9619 -32.4544 0 
-72.6514 -61.3369 0 
-98.7301 -45.5645 0 
-32.5294 -51.1028 0 
-80.9476 -88.8551 0 
-107.534 -62.8526 0 
-109.176 -50.3348 0 
-66.3728 -61.4309 0 
-92.7236 -45.0762 0 
-99.1605 -53.1966 0 
-101.171 -57.7244 0 
-88.9132 -64.4338 0 
-35.6957 -51.5396 0 
-96.6476 -55.6534 0 
-107.453 -53.3314 0 
-66.297 -60.9473 0 
-82.0837 -55.737 0 
-76.7958 -44.9409 0 
-108.858 -46.4787 0 
-84.2747 -9.86965 0 
-89.3381 -34.6457 0 
-65.6184 -48.1338 0 
-73.0167 -42.8643 0 
-98.8174 -54.399 0 
-97.6266 -58.2949 0 
-80.7902 -59.4678 0 
-109.178 -79.034 0 
-90.7309 -64.5305 0 
-95.808 -72.313 0 
-94.1449 -52.6559 0 
-74.3449 7.01646 0 
-99.3531 -36.4537 0 
-83.0053 -55.3685 0 
-76.0152 -51.9534 0 
-63.9122 -64.8152 0 
-56.9499 -61.8017 0 
-86.8577 -63.2585 0 
-71.503 -57.8801 0 
-59.6387 -50.5288 0 
-101.787 -44.1313 0 
-101.78 -55.9421 0 
-106.959 -61.494 0 
-44.1644 -56.1703 0 
-105.775 -57.9529 0 
-89.0288 -5.20127 0 
-65.8541 -73.0482 0 
-101.102 -50.813 0 
-102.828 -37.0729 0 
-76.0892 -54.3318 0 
-108.841 -36.7366 0 
-78.5366 -53.5616 0 
-83.1541 -64.3602 0 
-75.8373 -15.3752 0 
-87.6118 -3.53863 0 
-45.7382 -19.3478 0 
-65.3028 -19.8455 0 
-58.8217 -6.99638 0 
-39.7986 -0.788047 0 
-59.3318 -21.4665 0 
-87.1812 -14.9033 0 
-103.911 0.182531 0 
-76.305 -25.614 0 
-59.8344 -13.9325 0 
-62.5227 -12.0881 0 
-64.5448 -36.0123 0 
-43.5948 -0.321604 0 
-46.2393 -29.5783 0 
-58.2973 -9.05368 0 
-40.7859 -25.2282 0 
-48.5868 -17.5582 0 
-78.4592 -12.4714 0 
-78.9761 2.97273 0 
-53.1255 -19.7772 0 
-97.7167 -34.3017 0 
-42.3135 -24.3549 0 
-78.4436 -16.8502 0 
-48.509 -29.3274 0 
-56.4408 -23.1454 0 
-81.1048 -10.5215 0 
-72.1769 -34.7661 0 
-60.6156 -15.197 0 
-91.5804 -18.3773 0 
-65.5648 -11.2476 0 
-85.45 -3.36765 0 
-85.4752 -40.3914 0 
-88.0045 -2.41184 0 
-49.464 -34.8246 0 
-53.3269 -11.7856 0 
-54.0467 -30.8625 0 
-61.009 -4.93542 0 
-74.3409 -11.1931 0 
-95.4107 -39.5761 0 
-91.4963 -39.9087 0 
-85.3921 -43.6947 0 
-40.5169 -12.3467 0 
-57.0987 -25.551 0 
-75.2675 -7.54579 0 
-74.1893 -22.9408 0 
-59.8683 11.3664 0 
-68.1668 -28.0979 0 
-54.9307 -38.1064 0 
-56.2507 -14.9906 0 
-72.7182 -0.164124 0 
-87.7266 -30.2377 0 
-105.315 1.71259 0 
-55.0847 -8.96396 0 
-65.9526 -8.60581 0 
-61.8728 -9.35288 0 
-90.4659 -43.9372 0 
-40.4588 -11.9686 0 
-83.7509 -34.8826 0 
-88.1383 -36.0339 0 
-69.0942 -0.57931 0 
-75.3968 -26.6877 0 
-89.2229 -12.4292 0 
-66.6071 -11.3825 0 
-55.9968 -30.9995 0 
-65.0928 -11.2494 0 
-64.9523 -9.73576 0 
-67.5064 -14.319 0 
-89.0448 -36.3612 0 
-55.7417 -14.0058 0 
-55.3231 -8.93682 0 
-81.3371 -24.1389 0 
-47.9608 0.276787 0 
-90.3004 -46.883 0 
-81.4348 -72.4863 0 
-59.1624 -17.1096 0 
-67.3913 -27.8674 0 
-61.2267 -27.7843 0 
-96.721 -41.9675 0 
-52.939 1.25011 0 
-56.3958 -32.884 0 
-63.112 -25.0273 0 
-49.7888 -0.888023 0 
-83.7341 -4.61041 0 
-87.3594 -37.4485 0 
-98.6822 -17.2424 0 
-48.7681 -22.5964 0 
-101.873 -10.7672 0 
-86.8956 -29.3963 0 
-56.3328 -9.8958 0 
-68.3466 -26.3685 0 
-108.934 4.06782 0 
-55.2952 -28.2442 0 
-39.9794 -2.52325 0 
-69.0809 -19.6224 0 
-84.6663 -37.7701 0 
-54.5168 2.41771 0 
-98.6379 -38.6314 0 
-33.7555 -25.6929 0 
-66.8388 -11.4382 0 
-46.2106 -4.62274 0 
-102.963 -27.3728 0 
-55.3372 -17.3533 0 
-76.3311 -30.6744 0 
-85.2378 -36.9414 0 
-73.7111 -12.674 0 
-52.0069 -38.3078 0 
-57.6969 -17.5366 0 
-59.7964 -31.6684 0 
-85.2041 -19.6112 0 
-94.1524 -22.2882 0 
-59.5019 -9.2395 0 
-77.6058 -16.3974 0 
-98.5359 -65.1711 0 
-48.5006 -15.3378 0 
-95.6623 -37.0258 0 
-83.6265 -31.5072 0 
-51.2954 0.366594 0 
-58.2115 -27.3407 0 
-85.6867 -38.4547 0 
-97.1475 -5.23819 0 
-49.5797 -29.9694 0 
-104.437 -37.1033 0 
-88.4693 -63.3603 0 
-96.7656 -28.1839 0 
-46.8646 -44.3394 0 
-51.5555 0.424915 0 
-98.0689 -24.2945 0 
-108.644 -43.9127 0 
-63.5031 -9.27338 0 
-79.6124 -15.0663 0 
-98.6004 -28.3948 0 
-68.9089 -14.6766 0 
-78.26 -12.5333 0 
-90.8205 -5.32748 0 
-42.1432 6.93602 0 
-100.31 22.3332 0 
-63.7139 35.9849 0 
-42.0807 45.8459 0 
-83.8202 9.88542 0 
-42.2288 47.259 0 
-91.7403 -8.32687 0 
-70.0631 -12.5554 0 
-81.4423 33.0094 0 
-91.2861 -5.86234 0 
-89.7764 10.9623 0 
-92.0196 2.63315 0 
-92.8648 13.4803 0 
-53.6465 35.6111 0 
-101.894 2.27751 0 
-90.7603 -17.4546 0 
-86.5633 -0.587808 0 
-99.8651 27.3536 0 
-91.0107 1.44297 0 
-99.4583 5.9507 0 
-54.7385 -7.83341 0 
-80.2125 45.2023 0 
-54.7782 37.8556 0 
-81.8195 26.2182 0 
-83.3221 10.0255 0 
-67.9202 -4.09285 0 
-54.6525 39.8597 0 
-65.5253 42.0978 0 
-79.5167 42.7506 0 
-75.7587 15.4547 0 
-61.029 20.9106 0 
-83.342 -11.4337 0 
-80.6851 -19.5854 0 
-54.1183 66.0965 0 
-36.4702 63.919 0 
-54.2486 55.026 0 
-44.5127 57.2166 0 
-81.7544 45.4468 0 
-49.2711 84.8381 0 
-54.176 53.8296 0 
-54.2209 54.9968 0 
-85.9039 43.9615 0 
-53.3752 21.9292 0 
-69.717 44.7826 0 
-62.0306 94.729 0 
-44.632 60.625 0 
-43.7618 6.5077 0 
-87.8056 36.6547 0 
-84.4221 -23.6615 0 
-75.7335 73.2671 0 
-106.344 19.6204 0 
-74.1231 73.0356 0 
-65.5402 67.4365 0 
-72.1512 67.1886 0 
-58.2866 60.9177 0 
-103.557 37.2299 0 
-59.3724 45.4727 0 
-68.2653 73.8898 0 
-58.4349 60.1928 0 
-106.831 38.6587 0 
-71.5892 66.797 0 
-60.0719 45.6672 0 
-101.848 79.5379 0 
-106.812 45.8112 0 
-104.708 74.8939 0 
-106.813 45.8521 0 
-60.7277 76.4829 0 
-106.908 40.3429 0 
-107.109 42.4983 0 
-98.2964 46.567 0 
-68.9497 74.9535 0 
-68.6379 73.5564 0 
-79.0359 72.838 0 
-64.1662 76.1047 0 
-74.5469 77.0379 0 
-55.4915 71.3749 0 
-103.266 87.6938 0 
-106.745 40.1205 0 
-58.4686 60.1307 0 
-59.3055 71.6637 0 
-68.6407 68.9019 0 
-104.606 74.7016 0 
-106.734 44.4018 0 
-71.5309 67.8631 0 
-106.959 40.548 0 
-59.6456 50.4945 0 
-78.9299 49.2373 0 
-68.5351 50.1935 0 
-101.979 100.148 0 
-79.7553 102.185 0 
-91.4866 96.8846 0 
-29.5524 -72.603 0 
-51.5377 -69.5381 0 
-40.4328 -93.6457 0 
-30.9283 -74.044 0 
-60.3332 -95.3872 0 
-40.9 -93.6698 0 
-55.3675 -94.3466 0 
-60.1952 -94.5295 0 
-33.3126 -109.139 0 
-63.3001 -108.742 0 
-62.1034 -71.7053 0 
-72.601 -60.6413 0 
-85.4074 -70.703 0 
-63.3875 -59.8547 0 
-48.5032 -90.6657 0 
-66.4012 -80.416 0 
-68.4805 -62.2186 0 
-85.0257 -69.6681 0 
-78.0803 -65.9538 0 
-92.0383 -48.7366 0 
-73.5076 -71.1694 0 
-79.4459 -92.5842 0 
-49.9117 -79.4622 0 
-47.2432 -59.2126 0 
-36.0527 -76.2592 0 
-77.1313 -42.8202 0 
-42.005 -48.0225 0 
-28.9685 -90.2753 0 
-69.6973 -108.929 0 
-52.9378 -84.734 0 
-50.706 -61.0388 0 
-52.5783 -82.5554 0 
-95.8237 -60.7108 0 
-82.5689 -53.1426 0 
-52.5725 -29.9363 0 
-46.3397 -65.6796 0 
-52.0118 -88.7751 0 
-45.665 -94.5494 0 
-52.3435 -58.172 0 
-31.7741 -53.4411 0 
-76.2258 -61.0429 0 
-57.7086 -74.0174 0 
-69.7633 -52.6891 0 
-36.1398 -72.9534 0 
-68.7949 -65.1975 0 
-72.0753 -60.1873 0 
-71.4193 -50.4187 0 
-67.1659 -71.1582 0 
-86.1163 -66.4783 0 
-91.6115 -74.5349 0 
-51.159 -69.0038 0 
-50.7807 -63.6285 0 
-40.8573 -71.669 0 
-73.3698 -61.1734 0 
-73.1928 -61.3794 0 
-62.4646 -89.6394 0 
-63.9019 -61.8337 0 
-80.0753 -37.5972 0 
-79.8597 -53.0812 0 
-67.3454 -51.9149 0 
-46.9994 -90.8275 0 
-54.2671 -39.7814 0 
-70.6252 -65.8823 0 
-51.7647 -76.5387 0 
-51.0358 -66.1411 0 
-84.3321 -92.1585 0 
-92.0639 -57.7562 0 
-76.9702 -57.8407 0 
-76.2894 -44.9448 0 
-73.803 -61.9252 0 
-32.519 -89.4125 0 
-72.2293 -61.4121 0 
-69.8957 -108.968 0 
-88.8857 -106.035 0 
-58.6008 -84.6065 0 
-53.6469 -88.0776 0 
-89.3297 -71.1886 0 
-68.6551 -53.9597 0 
-94.2721 -63.0036 0 
-64.9846 -61.6208 0 
-46.4789 -59.1452 0 
-64.6634 -64.7679 0 
-54.5793 -49.421 0 
-90.5932 -75.6311 0 
-87.6638 -63.5267 0 
-75.5204 -58.0755 0 
-97.9841 -58.2244 0 
-83.4517 -84.3547 0 
-76.7207 -41.8621 0 
-70.964 -42.6599 0 
-75.0143 -60.7284 0 
-67.8301 -62.3344 0 
-55.1044 -63.2607 0 
-71.079 -53.9494 0 
-64.3828 -68.9123 0 
-64.7413 -83.3013 0 
-74.0859 -90.9633 0 
-50.3258 -80.5129 0 
-66.352 -59.7421 0 
-67.8581 -69.6311 0 
-74.7967 -30.3146 0 
-53.4504 -84.5996 0 
-28.1997 -45.4117 0 
-85.5882 -90.7281 0 
-78.479 -65.7185 0 
-72.9358 -63.6419 0 
-40.1528 -85.2014 0 
-87.1678 -85.7994 0 
-45.7664 -62.7465 0 
-40.8947 -52.1164 0 
-68.5524 -53.5364 0 
-92.5254 -15.9187 0 
-46.6205 -58.8348 0 
-72.4245 -67.5362 0 
-48.0603 -62.6557 0 
-71.7233 -71.7436 0 
-72.8525 -69.0903 0 
-73.1708 -60.3144 0 
-85.4312 -40.1442 0 
-84.6782 -50.0258 0 
-68.9256 -58.1702 0 
-39.8771 -47.2943 0 
-89.3009 -15.0321 0 
-59.8913 -73.0179 0 
-59.8369 -71.3583 0 
-54.1383 -51.2549 0 
-70.6998 -42.6371 0 
-69.0029 -48.3893 0 
-61.5347 -60.4689 0 
-79.6634 -28.5424 0 
-72.7998 -44.8517 0 
-82.931 -2.45979 0 
-84.6536 -18.1032 0 
-70.2434 -66.7225 0 
-56.7237 -58.5849 0 
-82.395 -26.4003 0 
-53.8202 -66.3224 0 
-45.1701 -58.4565 0 
-68.9528 -52.4584 0 
-75.2345 -48.1436 0 
-73.2424 -46.5219 0 
-71.1171 -38.364 0 
-59.4997 -50.1817 0 
-45.4428 -72.0676 0 
-69.7731 -65.7945 0 
-67.0825 -65.373 0 
-41.0517 -72.8803 0 
-52.2959 -71.9173 0 
-61.9688 -59.0039 0 
-56.4363 -64.7744 0 
-57.0519 -64.8609 0 
-71.3933 -62.0833 0 
-33.6434 -68.4421 0 
-49.4554 -69.0037 0 
-90.0201 -17.6861 0 
-79.043 -44.5737 0 
-69.9182 -51.3971 0 
-77.9764 -49.1123 0 
-77.9875 -48.7036 0 
-52.1644 -64.5134 0 
-87.5469 -36.1817 0 
-44.4026 -62.3558 0 
-48.1836 -60.319 0 
-72.1509 -73.4766 0 
-73.2993 -43.2095 0 
-79.1971 -48.1368 0 
-42.2056 -59.7232 0 
-40.3399 -53.4708 0 
-79.6384 -44.2629 0 
-44.7132 -71.0471 0 
-64.9498 -49.5514 0 
-53.7732 -71.2682 0 
-78.7701 -48.5224 0 
-70.7124 -49.3186 0 
-75.3644 -41.7811 0 
-89.27 -18.5828 0 
-97.5222 -14.9531 0 
-70.5545 -52.1999 0 
-69.2489 -68.4172 0 
-67.1325 -44.856 0 
-90.0477 -38.2077 0 
-46.7121 -58.9319 0 
-74.6069 -72.4007 0 
-50.0056 -71.2111 0 
-78.8395 -34.6563 0 
-62.4503 -66.6681 0 
-66.0976 -68.2765 0 
-98.0076 -14.9531 0 
-70.2391 -48.5743 0 
-77.4646 -48.5767 0 
-36.6713 -56.2944 0 
-69.003 -43.4463 0 
-71.8784 -70.3272 0 
-59.341 -49.4136 0 
-98.6435 -19.9496 0 
-64.7776 -77.6746 0 
-66.5904 -62.756 0 
-76.6067 -73.359 0 
-81.909 -36.5491 0 
-68.9937 -60.279 0 
-45.7376 -49.0939 0 
-37.8663 -62.3011 0 
-71.4744 -39.7089 0 
-69.0617 -51.6398 0 
-63.9435 -53.5819 0 
-92.347 -45.9245 0 
-17.553 -57.8449 0 
-71.0917 -67.1172 0 
-65.0748 -66.2787 0 
-83.2271 -19.2836 0 
-66.7129 -59.2366 0 
-42.5701 -77.3315 0 
-51.0939 -42.2741 0 
-79.2523 -48.3931 0 
-72.6471 -63.1497 0 
-78.8562 4.21669 0 
-81.4228 20.6377 0 
-58.5922 10.6694 0 
-76.419 28.2218 0 
-49.091 -0.0575456 0 
-67.3828 10.3434 0 
-81.4685 11.8582 0 
-55.4328 6.83904 0 
-69.6124 15.2992 0 
-55.5324 -4.76735 0 
-61.2579 -9.90318 0 
-51.0422 -2.89981 0 
-71.3796 -17.7263 0 
-76.8773 -4.53749 0 
-51.0184 -48.2792 0 
-74.4538 -20.1598 0 
-56.2038 -24.3039 0 
-84.4979 4.31092 0 
-41.6352 21.8576 0 
-40.9279 -8.49308 0 
-73.1896 -0.0246061 0 
-31.3713 -16.0683 0 
-52.2464 31.3309 0 
-40.5077 19.1833 0 
-57.0565 -0.188072 0 
-69.7678 10.706 0 
-73.9319 13.5348 0 
-79.0169 -5.35508 0 
-48.3786 5.40486 0 
-51.0806 -6.56851 0 
-90.0555 11.913 0 
-65.6389 -16.9402 0 
-83.2785 -38.139 0 
-78.8711 -19.1051 0 
-83.8057 38.015 0 
-70.3274 -5.64554 0 
-56.4203 -0.831926 0 
-94.6401 -27.8195 0 
-63.5571 4.12568 0 
-56.2759 -31.3104 0 
-57.5444 29.7361 0 
-80.156 12.0063 0 
-59.9033 -5.02524 0 
-92.3363 -31.9556 0 
-41.3867 13.3411 0 
-67.1575 13.3066 0 
-38.9302 1.17897 0 
-53.039 -59.127 0 
-35.3448 31.7156 0 
-97.7737 -29.4163 0 
-33.8699 20.8354 0 
-42.0216 4.02304 0 
-58.0904 -11.7693 0 
-103.816 -43.5853 0 
-78.6035 -4.0753 0 
-68.9774 -20.5544 0 
-55.9229 -31.7182 0 
-61.9198 3.25098 0 
-56.9003 -15.5138 0 
-37.7871 2.95594 0 
-69.0408 -28.4572 0 
-53.5669 -7.64172 0 
-53.0735 -12.3945 0 
-66.7163 23.9538 0 
-68.2311 -5.95396 0 
-69.6516 -6.25667 0 
-52.7904 -1.76034 0 
-65.3728 -19.5811 0 
-51.8718 23.3878 0 
-37.2697 -17.8803 0 
-80.8211 -7.01971 0 
-81.8811 -32.718 0 
-99.487 -24.25 0 
-79.9349 15.2885 0 
-65.1479 -14.1544 0 
-35.6 -3.49969 0 
-34.5591 19.2309 0 
-56.2983 5.73589 0 
-59.2455 -6.9642 0 
-47.0538 -35.9676 0 
-95.8697 -1.86547 0 
-43.109 -16.8479 0 
-94.3034 -22.7653 0 
-58.9711 0.264254 0 
-61.0352 4.74569 0 
-34.4417 -3.122 0 
-94.8445 -11.0672 0 
-45.2272 2.97203 0 
-57.6881 -8.02605 0 
-56.5979 -6.67526 0 
-74.982 -0.793289 0 
-79.6744 9.06742 0 
-79.4834 17.3479 0 
-53.1271 37.0005 0 
-28.2872 10.7859 0 
-86.0744 35.5395 0 
-65.137 -20.0417 0 
-94.3688 -39.8813 0 
-87.7385 16.5922 0 
-73.2756 -9.55613 0 
-55.2497 -10.4143 0 
-70.49 -13.5326 0 
-81.177 -1.49449 0 
-69.6125 -21.2438 0 
-47.3718 10.8235 0 
-58.222 5.24582 0 
-69.6978 -12.0062 0 
-33.0597 -16.79 0 
-92.2163 -19.494 0 
-68.1132 -23.099 0 
-71.2452 -1.47968 0 
-73.476 8.11153 0 
-57.9083 3.83725 0 
-44.3731 -8.25421 0 
-50.8552 -0.0227073 0 
-69.1691 -24.1872 0 
-78.0043 16.2056 0 
-59.4037 -2.61661 0 
-96.7505 -27.8363 0 
-51.4171 2.02746 0 
-60.3111 -8.31641 0 
-49.8781 -4.08868 0 
-52.2244 6.72768 0 
-85.271 -36.9291 0 
-56.5374 -7.33187 0 
-80.1677 31.9096 0 
-48.8609 4.58064 0 
-71.7761 -5.91448 0 
-81.8543 4.60386 0 
-42.0557 2.32673 0 
-36.1933 -57.0999 0 
-47.1411 43.3677 0 
-54.7038 -2.8703 0 
-48.7867 13.5037 0 
-51.7858 22.3687 0 
-88.5827 -51.1195 0 
-36.3434 -56.6119 0 
-51.9788 -20.5225 0 
-68.7 -23.2906 0 
-82.4017 -43.1216 0 
-93.5524 -14.6327 0 
-92.3294 -16.5194 0 
-66.9337 -3.79995 0 
-37.431 -23.8972 0 
-64.482 4.38642 0 
-67.4163 -32.4319 0 
-62.1954 -10.12 0 
-50.2694 -0.0847813 0 
-38.6917 12.212 0 
-43.8294 -24.1261 0 
-48.5989 -11.59 0 
-43.9139 -1.57679 0 
-70.3275 -14.6556 0 
-83.8797 4.58976 0 
-58.5768 -5.08535 0 
-64.8417 -9.91396 0 
-51.563 25.0291 0 
-65.6214 13.4201 0 
-49.4862 34.5939 0 
-92.8539 -26.8622 0 
-43.0057 16.7148 0 
-94.1605 0.528121 0 
-76.4207 25.7527 0 
-45.584 -10.6142 0 
-39.1587 -24.2144 0 
-45.286 2.43885 0 
-37.2488 1.88121 0 
-69.3487 27.1824 0 
-57.2401 -44.7276 0 
-45.1422 -11.7418 0 
-53.2581 6.38204 0 
-69.4192 13.4136 0 
-73.3835 1.59216 0 
-58.3343 -4.18397 0 
-56.7524 -12.805 0 
-55.148 -3.01563 0 
-68.8945 -14.4421 0 
-55.0863 -2.51038 0 
-61.7378 -16.7806 0 
-69.6363 -8.63745 0 
-73.5215 11.4507 0 
-68.9355 -20.293 0 
-69.2631 -26.7215 0 
-41.2819 22.0677 0 
-77.526 -19.54 0 
-57.8625 2.71759 0 
-70.971 -3.30568 0 
-65.5853 9.28937 0 
-51.5257 -53.2811 0 
-73.4421 -16.3514 0 
-63.8473 0.531665 0 
-82.6851 -34.2206 0 
-66.7261 14.4508 0 
-46.2646 -5.11179 0 
-47.7305 -37.7441 0 
-67.1596 30.5649 0 
-80.5785 12.5431 0 
-45.618 -36.9141 0 
-66.0597 -7.74574 0 
-53.351 26.3504 0 
-65.0608 -13.5325 0 
-50.6085 -15.7691 0 
-30.241 -17.1913 0 
-90.82 5.36481 0 
-39.4528 20.5954 0 
-81.5879 -14.4376 0 
-55.7224 -19.4672 0 
-103.721 3.26665 0 
-45.8531 -43.7888 0 
-97.4058 -47.8205 0 
-51.8936 -40.1805 0 
-68.2202 -8.60667 0 
-29.3654 21.927 0 
-36.7155 -20.5797 0 
-61.6505 -13.8148 0 
-57.9364 -40.1317 0 
-45.5088 -7.35839 0 
-77.2595 -19.9277 0 
-56.2361 -33.8711 0 
-74.7061 -34.5837 0 
-49.411 -12.1469 0 
-74.1256 -48.4835 0 
-83.1682 -17.6641 0 
-56.7331 34.5206 0 
-58.6241 2.37677 0 
-91.3016 -44.9777 0 
-36.6974 -22.4923 0 
-69.305 8.0533 0 
-68.1606 -21.6225 0 
-68.1672 44.074 0 
-69.6824 -38.163 0 
-34.9632 37.0978 0 
-67.7447 0.623604 0 
-76.4785 -48.6978 0 
-56.9267 8.20488 0 
-38.216 -14.2632 0 
-27.9631 -13.3868 0 
-72.5304 -48.617 0 
-76.184 -39.399 0 
-88.581 -41.3546 0 
-79.8149 -19.5235 0 
-47.334 -19.3368 0 
-49.7929 -10.4466 0 
-66.6464 -37.1763 0 
-78.6427 -36.7247 0 
-51.0725 -23.344 0 
-74.1295 -48.3703 0 
-69.4809 -37.4386 0 
-31.0984 -3.22929 0 
-89.3628 -26.7992 0 
-71.3202 -30.2687 0 
-73.2584 -5.02913 0 
-89.1588 -21.1203 0 
-86.5104 -32.7722 0 
-54.9648 4.68264 0 
-44.786 -29.5265 0 
-71.0553 -43.5395 0 
-71.8107 -17.3364 0 
-56.8995 37.7884 0 
-71.7427 -30.3045 0 
-66.5652 -44.2669 0 
-62.0949 31.0328 0 
-83.6026 -20.081 0 
-29.2647 22.0913 0 
-80.489 -30.1553 0 
-33.3036 -10.602 0 
-72.6925 -44.3384 0 
-34.5229 -11.2436 0 
-73.5398 -47.3701 0 
-84.0934 -38.7846 0 
-50.732 3.28918 0 
-72.7184 16.8852 0 
-86.7995 35.0847 0 
-94.7374 38.7735 0 
-75.9381 37.3032 0 
-84.9306 34.5848 0 
-27.8556 57.3999 0 
-88.0796 32.1891 0 
-57.8371 40.1163 0 
-92.631 43.7598 0 
-77.071 41.9544 0 
-80.6212 36.2387 0 
-79.3636 24.6364 0 
-91.0096 -12.0076 0 
-94.6056 -22.0136 0 
-96.9219 8.27981 0 
-31.7044 50.8869 0 
-83.0981 40.108 0 
-78.9215 53.2928 0 
-60.3627 38.9687 0 
-72.801 39.3007 0 
-15.91 67.9362 0 
-94.0373 -1.46346 0 
-90.0134 -1.17725 0 
-11.7589 65.9301 0 
-10.5466 68.6308 0 
-107.236 10.3538 0 
-87.2031 30.6314 0 
-100.432 37.7925 0 
-82.4454 51.6531 0 
-96.6789 36.5955 0 
-84.2403 32.8685 0 
-21.7578 -2.94316 0 
-84.9636 33.7818 0 
-90.9232 -13.7903 0 
-19.5369 87.6671 0 
-95.0675 33.8344 0 
-75.9945 34.7079 0 
-72.6315 13.1571 0 
-76.1136 39.5067 0 
-41.8682 67.48 0 
-42.1297 73.6682 0 
-90.0578 68.9644 0 
-85.7823 83.9885 0 
-41.6276 54.4536 0 
-65.8752 58.2027 0 
-31.9782 64.6796 0 
-70.5747 84.4107 0 
-26.2719 78.1078 0 
-39.2014 53.0783 0 
-75.4154 69.4556 0 
-65.6578 74.6798 0 
-61.4047 82.2372 0 
-88.0153 61.4763 0 
-43.8807 74.1447 0 
-44.3117 66.3697 0 
-89.7651 65.3387 0 
-42.9847 67.0071 0 
-64.7561 80.5229 0 
-56.8158 63.246 0 
-44.3225 72.9326 0 
-86.0155 61.5656 0 
-50.0725 40.2072 0 
-82.2201 68.7843 0 
-32.3954 56.2237 0 
-49.5351 55.5897 0 
-52.2042 89.5191 0 
-83.7848 92.4114 0 
-78.1146 -42.7766 0 
-88.1863 -74.7661 0 
-70.0779 -51.2583 0 
-79.275 -79.2766 0 
-107.305 -65.0297 0 
-87.6842 -63.2459 0 
-53.8023 -99.6356 0 
-20.8438 -105.223 0 
-44.9405 -99.6903 0 
-27.3631 -100.14 0 
-38.1005 -81.493 0 
-47.0356 -109.104 0 
-79.7762 -103.991 0 
-88.5913 -97.4527 0 
-27.2324 -99.0629 0 
-18.4871 -108.849 0 
-30.148 -98.3558 0 
-49.2124 -108.924 0 
-75.6149 -99.2747 0 
-98.2862 -78.953 0 
-81.3608 -103.877 0 
-27.1725 -109.246 0 
-85.0536 -104.158 0 
-67.6444 -103.169 0 
-7.33381 -98.4585 0 
-21.1877 -109.146 0 
-47.3008 -103.643 0 