<VTKFile type="UnstructuredGrid" version="0.1" byte_order="BigEndian">
  <UnstructuredGrid>
        <Piece NumberOfPoints="8000" NumberOfCells="0" Time= "0.39">      <Points>
        <DataArray name="Position" type="Float32"  NumberOfComponents= "3"  format="ascii">

50.9763 13.4276 0 
53.4362 25.8718 0 
55.1573 20.5786 0 
57.9667 21.1893 0 
57.4532 22.3297 0 
57.9755 27.5018 0 
56.9121 34.8867 0 
60.8508 4.22274 0 
61.0358 13.2777 0 
60.1833 22.5099 0 
60.1189 22.345 0 
59.3193 24.5566 0 
60.5394 24.6263 0 
60.4328 30.3782 0 
59.0368 30.4899 0 
60.9927 33.0393 0 
63.0705 2.57229 0 
62.9481 6.15655 0 
63.9318 10.0239 0 
62.8494 10.339 0 
61.2678 9.60864 0 
62.9668 10.4509 0 
63.7383 13.8508 0 
62.7015 13.2454 0 
61.915 14.5954 0 
63.4687 18.9104 0 
62.2516 16.9073 0 
63.1818 21.1201 0 
62.6802 21.6417 0 
62.4061 21.3995 0 
62.2261 19.3815 0 
62.7327 24.4151 0 
63.3771 23.7379 0 
61.8257 22.6445 0 
61.9537 26.8896 0 
61.6793 25.025 0 
62.3688 25.412 0 
63.7827 26.7957 0 
63.1983 27.2506 0 
62.398 29.0355 0 
62.1095 30.6483 0 
63.5086 33.4692 0 
63.5186 34.2506 0 
63.3215 32.2714 0 
63.569 35.3192 0 
62.1476 36.9926 0 
63.0048 36.2849 0 
62.7968 34.9355 0 
63.4007 37.5876 0 
65.5674 0.40853 0 
65.8636 0.406124 0 
64.2225 1.96078 0 
65.6452 1.6943 0 
65.7888 2.25725 0 
64.3 2.4533 0 
66.3143 2.61289 0 
65.0476 3.75186 0 
66.131 6.04502 0 
64.8609 4.97134 0 
65.6238 6.4718 0 
65.8932 8.65117 0 
65.3922 7.69905 0 
66.2728 8.80219 0 
65.6009 9.38261 0 
65.0157 10.3763 0 
66.0299 10.6779 0 
65.3621 11.6389 0 
65.9917 11.793 0 
65.1558 11.1157 0 
65.475 12.7623 0 
65.0975 13.0197 0 
64.5387 15.141 0 
64.4284 13.6264 0 
65.9508 13.9509 0 
64.8392 14.8643 0 
64.1537 16.6821 0 
64.3406 15.6141 0 
65.5197 15.8202 0 
64.8415 15.511 0 
64.5542 15.6437 0 
64.123 15.2338 0 
65.7512 15.9766 0 
66.5485 16.2952 0 
65.6298 16.6775 0 
65.1548 17.8854 0 
65.3216 18.8327 0 
63.7426 18.4381 0 
64.9786 18.9894 0 
65.8865 19.0174 0 
65.0113 17.4355 0 
65.7798 21.5264 0 
65.5152 21.7015 0 
65.9892 20.36 0 
64.2778 20.6339 0 
65.3801 21.142 0 
64.2776 23.0197 0 
65.2441 25.2934 0 
64.1762 25.3175 0 
65.3918 27.4152 0 
65.9774 26.0029 0 
65.2395 28.8342 0 
65.053 29.2681 0 
64.2877 29.2735 0 
66.181 29.7036 0 
64.1525 31.1896 0 
65.2346 31.924 0 
66.3803 30.7761 0 
66.2068 30.5035 0 
65.284 31.6792 0 
64.8988 34.4091 0 
65.7698 36.8568 0 
64.1821 36.6689 0 
64.9439 36.5593 0 
64.2509 36.0381 0 
66.2336 34.8429 0 
64.4728 35.6064 0 
65.4472 35.0812 0 
64.3198 37.1619 0 
65.4947 37.8411 0 
67.4971 1.80025 0 
67.239 0.658495 0 
67.2838 39.7356 0 
68.4851 1.45988 0 
68.0927 0.24753 0 
66.3737 0.0615334 0 
68.6445 1.95573 0 
69.0427 1.87771 0 
66.9831 2.76138 0 
68.6025 3.27759 0 
67.7283 3.47881 0 
67.3436 4.54518 0 
67.4338 2.17224 0 
68.3971 5.59845 0 
67.0023 6.11002 0 
66.6904 5.10655 0 
68.3624 5.32585 0 
67.1415 7.05009 0 
68.9771 5.6525 0 
67.7979 8.78971 0 
67.6769 7.44424 0 
68.0026 9.72452 0 
68.7386 7.81884 0 
67.7014 8.4581 0 
68.1991 9.22591 0 
67.9374 10.5294 0 
66.4215 9.49934 0 
66.4157 11.3225 0 
68.5082 11.3613 0 
68.7446 10.5319 0 
67.7636 12.0156 0 
67.5936 14.919 0 
67.709 12.4346 0 
66.6377 13.483 0 
66.7484 12.6821 0 
68.9338 12.2762 0 
67.9598 14.1966 0 
68.6896 14.0088 0 
68.873 13.3234 0 
66.6928 12.5163 0 
67.514 14.3552 0 
68.586 16.529 0 
66.5965 15.4919 0 
68.3195 15.8086 0 
67.592 16.3769 0 
66.896 16.6063 0 
68.1097 17.1481 0 
68.9767 15.5734 0 
68.7396 15.5949 0 
68.0794 16.8323 0 
66.2092 18.7023 0 
68.5379 18.619 0 
67.6898 18.2444 0 
68.4336 17.9537 0 
68.5787 17.1672 0 
67.161 18.1057 0 
68.2621 16.9677 0 
67.5753 18.6516 0 
68.0558 16.9764 0 
67.5157 18.6644 0 
67.7482 18.1351 0 
66.5807 18.4609 0 
66.5588 19.7793 0 
68.7858 21.4267 0 
67.2515 21.0667 0 
69.0327 21.5553 0 
67.1739 20.7805 0 
67.9606 20.1895 0 
68.5862 21.4202 0 
67.3983 19.5884 0 
68.5703 19.8164 0 
68.9589 20.5966 0 
66.5733 21.4214 0 
66.3349 21.0411 0 
67.9207 22.6061 0 
68.6001 22.8706 0 
68.2824 23.9502 0 
68.3041 23.9345 0 
67.7342 21.8377 0 
66.9179 23.6301 0 
67.854 23.4537 0 
67.5469 25.3757 0 
67.3976 25.6041 0 
67.6838 24.6905 0 
66.6626 25.2123 0 
67.659 26.9157 0 
68.0996 26.1174 0 
66.8106 26.66 0 
66.999 28.4535 0 
68.2233 29.9519 0 
68.8485 28.1962 0 
68.6198 28.786 0 
66.5547 27.2779 0 
68.2814 27.1633 0 
68.2878 27.9307 0 
67.4224 29.1334 0 
68.2474 31.1164 0 
68.1934 29.975 0 
66.3183 31.8813 0 
67.0506 30.931 0 
68.4944 31.8456 0 
67.4236 29.9187 0 
66.917 31.6828 0 
67.0297 30.5871 0 
68.4554 31.6133 0 
67.1892 32.0532 0 
67.7324 30.3844 0 
67.6404 30.8258 0 
66.886 31.9813 0 
66.8978 30.2893 0 
67.4823 30.9519 0 
67.6322 33.0482 0 
68.2211 32.8803 0 
66.4036 34.1067 0 
66.8911 34.0477 0 
67.577 34.737 0 
68.4984 34.2178 0 
68.4267 32.4942 0 
68.2703 36.2679 0 
67.6158 35.5009 0 
68.6884 36.4706 0 
67.8155 34.7388 0 
68.6965 36.3585 0 
68.9027 35.666 0 
68.4806 34.9398 0 
67.878 35.0857 0 
67.6451 37.2634 0 
68.7486 37.7356 0 
68.0668 37.2781 0 
66.9332 37.7529 0 
68.1231 39.933 0 
70.6541 1.02492 0 
70.3313 0.439331 0 
71.4393 0.323675 0 
70.7684 0.395449 0 
69.4759 1.77016 0 
69.4599 1.39902 0 
70.8814 38.92 0 
71.4944 3.85765 0 
71.182 2.02976 0 
70.6229 2.77807 0 
69.3698 2.57098 0 
70.0378 2.14439 0 
69.9505 3.58669 0 
69.8872 2.87859 0 
70.2655 2.66679 0 
70.0466 3.9742 0 
69.368 3.63788 0 
71.363 4.71504 0 
69.2223 4.71591 0 
71.0564 4.7386 0 
70.1095 6.9754 0 
69.3251 6.51126 0 
69.2568 6.16327 0 
69.1667 6.04159 0 
70.128 5.38673 0 
69.7934 6.27031 0 
69.4556 6.15452 0 
70.5209 5.88814 0 
70.8118 4.8735 0 
71.4231 6.73485 0 
70.3455 7.59208 0 
69.2359 9.63922 0 
70.1525 7.02784 0 
71.3797 9.06505 0 
70.744 8.24433 0 
69.4063 7.26942 0 
70.7922 7.79657 0 
71.1968 7.73912 0 
70.9666 9.57293 0 
70.0093 8.29431 0 
69.6405 6.47525 0 
71.3538 9.17211 0 
69.6193 8.50318 0 
69.1058 8.96421 0 
70.3669 6.82625 0 
69.8764 8.98358 0 
70.008 12.0186 0 
69.1726 11.3303 0 
71.0234 10.9546 0 
69.1764 9.29326 0 
70.1011 11.2134 0 
69.7631 10.9393 0 
70.4481 10.2585 0 
69.1387 10.7595 0 
70.6864 11.0621 0 
71.1033 10.7553 0 
70.5731 10.7221 0 
69.2402 10.7034 0 
70.8872 10.5976 0 
70.3111 11.5874 0 
70.4153 11.1747 0 
69.2025 11.4649 0 
69.0067 12.0657 0 
69.9213 11.1374 0 
69.7738 12.7402 0 
70.6085 14.0957 0 
69.1872 13.5818 0 
70.5716 12.5682 0 
70.9038 13.0825 0 
71.2393 12.1942 0 
69.3294 13.8456 0 
70.9282 13.3978 0 
70.0241 11.8244 0 
70.1898 12.9104 0 
71.2824 13.8117 0 
70.0127 12.6514 0 
70.7443 13.7162 0 
71.3369 13.6574 0 
71.2106 16.3414 0 
70.0616 15.4664 0 
71.2221 15.1054 0 
70.191 15.3178 0 
70.7189 16.3446 0 
70.7541 15.1751 0 
69.6338 16.9314 0 
69.6092 17.3459 0 
71.0454 15.7134 0 
70.1742 16.0351 0 
71.2719 15.7096 0 
69.0845 15.4742 0 
70.3906 15.3659 0 
69.8546 16.184 0 
69.9485 15.4802 0 
69.4251 16.0799 0 
69.003 16.6767 0 
71.1697 14.773 0 
71.1114 16.0388 0 
70.037 18.7321 0 
71.2934 17.8983 0 
69.3007 17.9785 0 
70.0568 17.7935 0 
69.2158 18.8613 0 
70.7975 19.6549 0 
71.5315 18.5775 0 
69.3558 18.5001 0 
70.8217 19.075 0 
70.1604 16.6165 0 
69.6285 17.8663 0 
70.4931 19.5743 0 
69.6862 19.207 0 
71.2296 19.5201 0 
69.2474 22.0402 0 
70.4628 19.7163 0 
70.998 19.7874 0 
69.2291 21.4194 0 
69.8853 19.9501 0 
70.9268 20.3424 0 
70.7827 21.6646 0 
70.9857 20.1356 0 
69.2501 20.8012 0 
70.8389 19.4975 0 
70.8787 21.0809 0 
69.869 19.5626 0 
70.107 23.5943 0 
71.018 22.9728 0 
69.5096 22.8992 0 
70.1967 24.2705 0 
69.9579 23.8923 0 
70.9793 21.6962 0 
71.5155 21.8488 0 
69.6466 23.9847 0 
69.6174 22.2749 0 
69.3775 22.6225 0 
70.5884 24.7975 0 
71.0674 21.9357 0 
69.3611 22.3311 0 
71.0583 23.3504 0 
71.3315 22.1237 0 
70.8219 24.4387 0 
69.1982 22.3755 0 
71.2674 22.708 0 
71.3333 22.7463 0 
69.8347 23.3268 0 
70.4823 23.2732 0 
70.0702 22.1014 0 
69.597 23.2167 0 
70.1264 23.9878 0 
71.0884 24.9685 0 
69.7987 24.9084 0 
71.0164 26.9117 0 
71.0461 24.4757 0 
70.3985 24.683 0 
70.4833 24.9076 0 
70.4794 24.5035 0 
70.0282 26.5745 0 
69.9858 25.3653 0 
69.6184 29.1524 0 
70.1858 28.8997 0 
69.1344 28.0655 0 
70.1509 27.3893 0 
71.1019 29.47 0 
70.891 27.0403 0 
70.6944 28.5591 0 
71.2823 27.8898 0 
70.7615 27.5298 0 
69.2391 27.9986 0 
70.7121 28.4233 0 
70.9278 29.3146 0 
69.4136 27.1215 0 
69.9261 29.1491 0 
69.4766 27.5577 0 
70.8782 30.3984 0 
69.3716 30.5597 0 
69.9571 30.2704 0 
71.3217 30.9076 0 
71.015 29.7465 0 
70.3129 29.8265 0 
70.0515 30.8287 0 
69.6244 30.9651 0 
70.3153 31.647 0 
70.0543 29.5124 0 
69.9578 31.4113 0 
71.4325 31.9081 0 
69.1534 33.7214 0 
71.0071 33.8848 0 
71.3595 32.1384 0 
69.7238 33.4033 0 
70.2843 32.0104 0 
71.3185 33.3283 0 
71.3111 32.5654 0 
70.9394 36.3127 0 
71.1263 35.5978 0 
69.4103 36.4936 0 
71.3673 35.8385 0 
69.2133 35.5436 0 
71.1383 34.7741 0 
70.5918 35.9236 0 
70.6154 36.0596 0 
70.4852 37.1119 0 
69.8478 35.7138 0 
71.5554 35.554 0 
70.065 37.4594 0 
70.6403 37.4318 0 
69.6324 37.7204 0 
71.0725 37.2089 0 
69.8278 38.5034 0 
70.0231 39.0564 0 
70.6431 38.8326 0 
71.9928 0.276133 0 
72.0394 38.5033 0 
72.787 38.7732 0 
72.1018 1.24529 0 
73.2608 37.9006 0 
72.0163 1.53596 0 
73.2532 0.51711 0 
73.1691 1.06498 0 
73.5563 1.49077 0 
72.0204 1.1272 0 
73.6354 3.53411 0 
72.7888 1.66497 0 
71.2738 2.7695 0 
71.5502 4.28079 0 
72.0425 2.42975 0 
71.5227 2.41815 0 
73.5152 3.71602 0 
71.9279 4.3547 0 
72.7545 4.08592 0 
73.3819 3.18459 0 
72.0796 2.84033 0 
73.2631 2.69051 0 
72.2267 3.18936 0 
72.0802 5.61218 0 
72.5045 6.42836 0 
72.7366 5.23941 0 
73.4102 6.74972 0 
72.2374 4.79294 0 
72.4072 4.9923 0 
72.6503 4.83276 0 
73.5592 6.34035 0 
73.8593 4.50526 0 
72.0628 5.74409 0 
71.813 6.28441 0 
71.7445 7.62885 0 
73.8194 6.61004 0 
73.1794 6.70873 0 
72.201 7.8039 0 
73.6787 9.70399 0 
72.6471 9.12436 0 
72.3477 8.97617 0 
72.326 8.79742 0 
72.5554 6.86673 0 
73.8014 7.27614 0 
73.2684 7.98574 0 
72.1445 7.97022 0 
72.6508 7.25772 0 
72.2047 7.93626 0 
72.7957 6.4265 0 
72.6744 9.60566 0 
71.7635 7.64664 0 
71.4921 10.1722 0 
73.648 10.6519 0 
72.1653 10.9215 0 
73.5578 10.4765 0 
73.6057 9.83814 0 
72.2167 11.1237 0 
73.6891 11.931 0 
73.2031 10.0038 0 
[...]
      <PointData Vectors="vector">
        <DataArray type="Float32" Name="Velocity" NumberOfComponents="3" format="ascii">

-247.14 -185.82 0 
-231.477 -103.832 0 
-217.522 -134.619 0 
-213 -121.983 0 
-204.114 -67.0263 0 
-235.632 -128.463 0 
-209.027 -16.8956 0 
-222.551 -80.1046 0 
-209.084 -99.2825 0 
-178.278 72.2329 0 
-269.549 -148.535 0 
-251.311 -135.388 0 
-180.912 -28.5723 0 
-244.665 -135.382 0 
-195.754 -139.638 0 
-220.061 -169.376 0 
-202.44 -116.788 0 
-281.864 -108.463 0 
-209.889 -149.468 0 
-234.429 -105.976 0 
-246.235 -66.4868 0 
-224.348 -126.819 0 
-206.553 -120.53 0 
-199.35 -69.3529 0 
-207.381 30.9996 0 
-219.567 -64.6148 0 
-196.947 -77.3016 0 
-253.76 -57.5118 0 
-218.402 -42.0891 0 
-197.852 -61.7246 0 
-241.027 -76.1317 0 
-229.482 -83.5311 0 
-261.856 -189.093 0 
-239.629 -192.45 0 
-190.507 87.8914 0 
-254.532 -168.006 0 
-228.565 -184.302 0 
-228.85 -151.364 0 
-238.294 -188.823 0 
-271.963 -135.094 0 
-288.032 -169.283 0 
-263.407 -22.853 0 
-199.804 -185.599 0 
-176.938 107.358 0 
-213.851 -159.739 0 
-284.266 -133.308 0 
-224.656 -161.817 0 
-182.923 18.279 0 
-243.167 -128.411 0 
-235.475 -114.246 0 
-201.582 -175.833 0 
-235.409 -22.1723 0 
-223.869 -110.262 0 
-164.294 -107.748 0 
-217.245 -99.8208 0 
-227.007 -96.5351 0 
-227.771 -129.307 0 
-214.889 -66.6834 0 
-247.131 -146.698 0 
-200.39 -100.932 0 
-228.229 -80.9388 0 
-231.238 -100.725 0 
-203.324 -64.6515 0 
-204.009 -89.3466 0 
-202.543 -101.11 0 
-243.281 37.9501 0 
-275.944 -90.3462 0 
-242.483 -80.0367 0 
-213.305 58.6994 0 
-259.254 -113.082 0 
-252.384 -54.0216 0 
-193.513 -35.2713 0 
-243.824 -233.573 0 
-227.426 -34.4689 0 
-195.339 -108.071 0 
-238.287 -53.5299 0 
-246.101 -68.6104 0 
-192.313 -57.3379 0 
-232.503 -69.7801 0 
-203.025 -45.5756 0 
-185.933 -14.6783 0 
-222.509 -88.0117 0 
-239.805 -33.2821 0 
-216.846 -43.2692 0 
-183.805 -51.0825 0 
-215.899 -66.7686 0 
-205.003 -18.4366 0 
-248.634 -56.7695 0 
-199.438 -16.0306 0 
-259.711 -173.287 0 
-213.324 -167.755 0 
-225.007 -20.7226 0 
-236.96 -24.0039 0 
-240.835 -36.3346 0 
-246.325 -184.935 0 
-217.226 -153.838 0 
-194.487 -38.8288 0 
-231.195 -172.878 0 
-222.444 -133.059 0 
-206.215 -19.2546 0 
-204.58 21.1946 0 
-187.45 84.5124 0 
-219.66 -156.437 0 
-199.587 -26.8954 0 
-209.523 -171.158 0 
-231.763 -145.191 0 
-277.645 -162.604 0 
-233.727 -197.823 0 
-212.281 -143.648 0 
-235.783 -3.04726 0 
-271.188 -159.353 0 
-166.02 5.7543 0 
-205.432 -136.813 0 
-255.043 -149.151 0 
-266.069 -120.179 0 
-222.602 -99.1761 0 
-273.241 -141.003 0 
-181.784 -147.431 0 
-255.918 -173.42 0 
-149.665 99.5911 0 
-258.563 -35.6151 0 
-274.121 -104.852 0 
-267.401 -158.007 0 
-257.588 -143.639 0 
-140.833 101.094 0 
-217.494 -155.741 0 
-200.805 -155.137 0 
-244.213 -150.042 0 
-244.018 -163.642 0 
-177.62 -11.8523 0 
-228.057 -80.7896 0 
-187.698 -94.9049 0 
-216.179 147.594 0 
-216.361 -130.905 0 
-190.131 -104.885 0 
-203.609 -110.564 0 
-227.477 -23.131 0 
-229.182 -93.2529 0 
-272.191 -128.369 0 
-255.392 -113.345 0 
-229.703 -94.9185 0 
-267.174 -127.424 0 
-212.52 -148.758 0 
-285.668 -61.9489 0 
-264.828 -90.0407 0 
-195.826 -89.7557 0 
-235.003 -83.7038 0 
-217.594 -22.566 0 
-267.604 -106.783 0 
-212.057 -106.158 0 
-190.249 7.41657 0 
-187.882 -98.8612 0 
-191.683 -110.078 0 
-205.821 -84.4423 0 
-206.947 -98.1929 0 
-220.533 -65.0833 0 
-220.837 -101.899 0 
-229.866 -125.804 0 
-233.787 -89.0732 0 
-262.291 -104.236 0 
-254.915 -114.228 0 
-209.779 -88.3515 0 
-219.203 -56.8397 0 
-244.766 -79.142 0 
-208.069 -76.0768 0 
-193.31 -105.779 0 
-219.493 -66.7418 0 
-207.183 -80.8794 0 
-189.001 -70.7945 0 
-235.463 -197.652 0 
-237.665 -249.91 0 
-264.787 -108.991 0 
-246.301 -99.8141 0 
-221.86 -63.6107 0 
-197.365 -64.367 0 
-192.615 -96.7277 0 
-257.713 -202.26 0 
-184.822 -163.007 0 
-214.846 -206.568 0 
-201.23 -203.166 0 
-194.187 82.9817 0 
-239.077 -84.1397 0 
-244.997 -33.434 0 
-223.241 -208.683 0 
-218.913 -50.1768 0 
-166.288 56.9123 0 
-255.883 -87.2266 0 
-256.362 -166.456 0 
-203.08 -195.362 0 
-210.529 -61.053 0 
-166.835 62.8332 0 
-249.745 -203.633 0 
-135.879 76.5296 0 
-247.924 -161.048 0 
-250.21 -49.0289 0 
-221.482 -81.1666 0 
-227.15 -60.1077 0 
-224.003 -177.157 0 
-239.988 -139.74 0 
-249.379 -158.776 0 
-239.889 -35.3459 0 
-229.322 -162.774 0 
-179.584 55.9951 0 
-198.646 -197.333 0 
-196.617 -35.8493 0 
-262.567 -64.6086 0 
-200.655 -27.0863 0 
-229.559 -35.8249 0 
-202.418 -61.8334 0 
-225.166 -64.0825 0 
-263.706 -198.983 0 
-256.754 -42.9845 0 
-227.332 14.7252 0 
-180.366 -46.1172 0 
-191.624 93.8025 0 
-225.831 -36.3322 0 
-224.838 -48.8626 0 
-269.386 -34.6406 0 
-232.823 -134.669 0 
-236.872 -163.814 0 
-249.096 -18.2388 0 
-209.198 -169.974 0 
-253.122 -44.2858 0 
-226.244 -7.25433 0 
-210.679 -31.7312 0 
-146.775 68.9652 0 
-245.967 -189.96 0 
-177.206 -37.1177 0 
-192.47 -152.367 0 
-227.652 -198.071 0 
-183.115 -13.0793 0 
-237.493 -167.29 0 
-250.73 -203.493 0 
-232.96 -21.5554 0 
-227.557 6.31499 0 
-238.816 -181.071 0 
-235.169 -203.414 0 
-254.375 -136.028 0 
-242.23 -129.601 0 
-226.06 -178.207 0 
-250.641 -164.333 0 
-223.503 2.78926 0 
-248.971 -151.608 0 
-206.156 -157.23 0 
-208.141 10.0598 0 
-216.954 -133.819 0 
-177.692 73.8562 0 
-171.383 -139.062 0 
-208.934 -179.614 0 
-214.509 -145.14 0 
-192.657 -34.5998 0 
-178.394 -29.9653 0 
-284.652 -146.76 0 
-174.77 13.7783 0 
-232.312 -166.266 0 
-230.706 -136.439 0 
-212.692 -146.559 0 
-229.025 -146.719 0 
-173.845 -177.944 0 
-241.289 -165.153 0 
-183.612 -182.074 0 
-225.668 -146.614 0 
-261.669 -118.821 0 
-228.962 -127.172 0 
-239.959 -123.147 0 
-251.61 -147.261 0 
-232.728 43.0064 0 
-245.504 -163.149 0 
-190.14 -19.2647 0 
-178.077 6.61871 0 
-177.827 -77.657 0 
-228.514 -122.363 0 
-231.63 -162.016 0 
-204.917 -155.142 0 
-192.833 -107.018 0 
-204.948 -95.5291 0 
-198.394 -140.387 0 
-229.453 -112.03 0 
-235.314 -114.816 0 
-202.367 -123.977 0 
-241.654 -148.409 0 
-249.186 -141.805 0 
-228.282 -139.67 0 
-202.052 10.9885 0 
-194.169 -6.08377 0 
-227.44 -113.974 0 
-250.512 -129.925 0 
-193.49 -2.50747 0 
-214.93 -168.437 0 
-208.67 -118.446 0 
-221.983 -88.019 0 
-230.929 -84.9812 0 
-201.509 -84.4397 0 
-216.345 -145.791 0 
-225.872 -103.197 0 
-214.821 -95.8127 0 
-180.887 -82.428 0 
-252.64 -144.549 0 
-205.359 -136.666 0 
-196.148 -106.368 0 
-200.896 -101.132 0 
-183.162 -90.6288 0 
-218.981 -0.435511 0 
-190.251 -65.8021 0 
-187.636 -120.417 0 
-215.734 -77.8043 0 
-191.432 -12.7037 0 
-197.699 -110.25 0 
-227.3 -96.1575 0 
-198.668 -79.7403 0 
-237.136 -72.6433 0 
-223.806 -82.1553 0 
-199.003 -31.5148 0 
-207.868 -71.5643 0 
-205.975 -107.552 0 
-213.683 -93.5157 0 
-192.569 -55.6051 0 
-216.376 -65.8783 0 
-222.679 -87.9788 0 
-217.938 -88.5189 0 
-177.099 -75.5374 0 
-213.221 -85.8219 0 
-184.403 50.4247 0 
-213.022 -108.987 0 
-224.392 -214.91 0 
-226.984 -111.894 0 
-209.738 -46.5919 0 
-204.656 -109.502 0 
-206.388 -119.096 0 
-274.044 -96.67 0 
-250.085 -250.657 0 
-207.668 -221.749 0 
-160.596 -93.4435 0 
-235.213 -134.139 0 
-187.705 -88.3562 0 
-243.422 -250.879 0 
-191.758 -200.433 0 
-263.803 -94.9626 0 
-214.913 -45.565 0 
-160.561 -78.7505 0 
-200.932 -212.926 0 
-225.73 -62.9055 0 
-226.997 -71.6839 0 
-153.361 72.9912 0 
-242.876 -87.9793 0 
-209.779 -58.4707 0 
-172.754 69.5902 0 
-205.296 -54.6669 0 
-194.139 -115.462 0 
-217.061 -166.873 0 
-171.449 -57.1982 0 
-222.441 -189.047 0 
-267.552 -47.38 0 
-183.344 -179.238 0 
-162.202 -65.8745 0 
-229.975 -73.9354 0 
-237.033 -212.248 0 
-216.818 -64.7403 0 
-225.754 -163.995 0 
-223.316 -235.499 0 
-196.402 -85.7862 0 
-214.844 -39.6269 0 
-208.269 -68.3244 0 
-221.164 -181.178 0 
-235.495 -59.7804 0 
-209.577 -65.9829 0 
-182.455 -38.3197 0 
-184.706 -43.0445 0 
-215.916 -90.7559 0 
-194.239 81.9536 0 
-245.801 -169.119 0 
-183.79 -97.7815 0 
-228.531 -171.118 0 
-220.562 -181.783 0 
-224.116 -13.3494 0 
-223.074 -166.342 0 
-213.117 -181.705 0 
-232.087 -151.585 0 
-225.969 -163.13 0 
-218.12 -205.629 0 
-236.611 -70.552 0 
-163.288 -36.5822 0 
-213.586 -200.151 0 
-179.407 -187.454 0 
-284.034 -213.275 0 
-238.922 -48.7015 0 
-237.696 -60.1891 0 
-195.084 -76.4908 0 
-133.169 70.995 0 
-185.961 -196.332 0 
-213.186 -185.344 0 
-176.906 -159.748 0 
-255.711 -161.01 0 
-216.889 -207.203 0 
-195.844 -201.854 0 
-263.797 -168.368 0 
-197.726 -209.351 0 
-262.516 -28.935 0 
-252.032 -195.254 0 
-214.453 -189.07 0 
-217.85 -182.446 0 
-246.258 -214.566 0 
-170.21 101.716 0 
-230.287 -160.787 0 
-215.772 -49.8133 0 
-204.097 -50.67 0 
-236.572 -182.605 0 
-244.259 -130.766 0 
-225.863 -184.023 0 
-191.931 -136.455 0 
-225.088 -154.423 0 
-231.573 -175.474 0 
-201.962 -177.289 0 
-235.199 -187.523 0 
-254.951 -163.854 0 
-265.541 -174.016 0 
-253.35 -171.272 0 
-230.933 -220.321 0 
-202.033 60.2119 0 
-240.633 -186.265 0 
-221.479 -156.81 0 
-219.386 -25.0956 0 
-200.763 86.2528 0 
-218.605 -56.7437 0 
-227.108 -21.3469 0 
-222.204 -154.195 0 
-243.282 -178.747 0 
-196.552 -157.06 0 
-241.504 -124.178 0 
-256.916 -200.613 0 
-222.938 -9.90049 0 
-168.121 -22.5047 0 
-269.088 -148.219 0 
-211.324 -2.45189 0 
-230.976 -176.507 0 
-225.301 -195.505 0 
-187.781 15.6249 0 
-223.541 -175.799 0 
-171.707 -126.698 0 
-215.752 -172.235 0 
-224.793 -157.828 0 
-257.195 -183.194 0 
-229.45 -140.85 0 
-172.979 -174.004 0 
-178.909 -166.84 0 
-265.91 -184.364 0 
-246.162 -187.491 0 
-208.709 -169.388 0 
-189.645 -15.632 0 
-214.706 -175.924 0 
-250.439 -197.24 0 
-225.079 14.1064 0 
-202.309 -8.77633 0 
-229.773 -191.185 0 
-179.991 -148.023 0 
-187.269 -168.521 0 
-185.131 -147.785 0 
-227.945 6.66418 0 
-281.478 -161.708 0 
-171.37 110.695 0 
-241.942 -152.508 0 
-255.531 -148.1 0 
-261.485 -133.24 0 
-177.852 -29.0271 0 
-218.806 -158.709 0 
-229.672 -99.1873 0 
-225.033 -109.581 0 
-223.467 -26.2514 0 
-199.893 -121.9 0 
-231.864 -160.905 0 
-183.478 112.682 0 
-212.202 -121.344 0 
-154.608 95.8547 0 
-185.341 -102.96 0 
-225.378 -120.336 0 
-205.778 -159.075 0 
-222.673 -144.739 0 
-238.041 -141.831 0 
-220.067 -134.011 0 
-234.699 -147.321 0 
-198.107 -87.9909 0 
-143.968 -41.6082 0 
-205.012 -113.312 0 
-227.668 -138.974 0 
-183.652 9.5849 0 
-229.948 -119.969 0 
-191.675 -134.245 0 
-191.179 -116.307 0 
-240.018 -137.954 0 
-223.685 -168.154 0 
-239.337 -130.321 0 
-194.339 -152.7 0 
-213.435 -105.616 0 
-153.786 -75.7185 0 
-224.865 -134.488 0 
-205.094 19.8404 0 
-186.912 -106.093 0 
-205.451 -77.7476 0 
-217.373 -104.563 0 
-220.44 -117.44 0 
-218.815 -144.26 0 
-231.887 -125.802 0 
-176.237 15.3461 0 
-172.162 -135.055 0 
-202.844 -19.08 0 
-231.238 -125.37 0 
-189.808 -99.7847 0 
-225.714 -135.994 0 
-232.649 -101.129 0 
-197.725 -134.439 0 
-235.417 -97.0314 0 
-203.985 -128.334 0 
-220.22 -84.772 0 
-223.006 -158.433 0 
-212.701 -126.023 0 
-281.935 -117.944 0 
-213.003 -130.939 0 
-223.866 -100.615 0 
-211.183 -121.769 0 
-222.174 -99.1742 0 
-217.18 -123.866 0 
-181.738 -127.23 0 
-250.109 -100.734 0 
-208.389 -91.7958 0 
-183.493 -52.5555 0 
-146.297 -92.6228 0 
-206.735 -112.652 0 
-221.555 -115.014 0 
-202.814 -93.7739 0 
-261.278 -109.85 0 
-205.424 -55.7953 0 
-148.926 36.7342 0 
-240.665 -78.1592 0 
-199.596 24.7752 0 
-205.274 -263.958 0 
-259.28 -79.4667 0 
-203.366 -85.6844 0 
-158.782 25.8096 0 
-231.169 19.3656 0 
-173.132 -95.632 0 
-204.115 -85.6859 0 
-186.77 -98.5805 0 
-212.863 -74.5789 0 
-257.727 -94.7708 0 
-201.216 -105.873 0 
-232.074 -68.691 0 
-212.067 25.3662 0 
-200.222 -104.52 0 
-215.111 -81.4652 0 
-203.826 -204.896 0 
-256.949 -224.558 0 
-181.433 -247.876 0 
-239.293 -86.9211 0 
-237.55 -277.947 0 
-241.11 -106.014 0 
-209.853 -81.5631 0 
-205.435 -48.5816 0 
-203.932 -49.5734 0 
-184.944 -52.4437 0 
-225.194 -102.848 0 
-203.347 -90.4401 0 
-174.95 -104.664 0 
-217.033 -66.4615 0 
-196.344 -93.874 0 
-227.408 -71.9259 0 
-224.251 -76.4253 0 
-228.056 -203.326 0 
-242.066 -235.83 0 
-214.676 -55.2167 0 
-189.95 -42.3677 0 
-218.418 -250.27 0 
-194.783 -112.214 0 
-199.832 -106.374 0 
-179.308 -94.9719 0 
-201.488 -205.265 0 
-201.359 -82.3762 0 
-184.422 -86.2161 0 
-220.871 -30.5049 0 
-231.747 -63.0403 0 
-196.848 -44.8401 0 
-169.167 -59.7573 0 
-201.04 -229.016 0 
-210.071 -74.6708 0 
-216.091 -196.708 0 
-171.686 -174.629 0 
-250.674 -17.2288 0 
-179.546 -108.101 0 
-213.185 -45.6151 0 
-178.876 -66.9447 0 
-231.323 -64.3768 0 
-206.01 -188.911 0 
-192.526 -89.0737 0 
-215.993 -86.9359 0 
-260.592 -220.853 0 
-185.017 -224.124 0 
-215.714 -203.347 0 
-220.09 -195.396 0 
-226.571 -187.816 0 
-197.768 -45.9023 0 
-140.393 79.4074 0 
-211.801 -167.946 0 
-230.509 -66.6207 0 
-200.697 -69.7785 0 
-184.726 -29.5499 0 
-199.291 -71.0438 0 
-214.828 -64.7196 0 
-155.918 -60.9873 0 
-218.733 -66.1167 0 
-210.101 -38.4416 0 
-235.002 -47.7232 0 
-239.053 -198.8 0 
-233.71 -209.243 0 
-191.725 -193.351 0 
-234.929 -163.258 0 
-248.095 -195.03 0 
-233.643 -191.08 0 
-192.671 -149.03 0 
-197.753 -220.613 0 
-183.605 -64.9487 0 
-253.388 -84.9405 0 
-227.891 -56.0204 0 
-238.551 -206.939 0 
-223.621 -217.345 0 
-223.057 -50.7733 0 
-218.374 -194.272 0 
-246.217 -180.048 0 
-179.374 -60.8784 0 
-223.654 -68.1797 0 
-205.693 -204.391 0 
-207.835 -195.933 0 
-214.86 -137.575 0 
-216.602 -165.492 0 
-207.493 -184.021 0 
-204.578 21.1227 0 
-237.006 -162.966 0 
-211.346 -195.321 0 
-215.384 -185.75 0 
-222.684 -173.395 0 
-175.069 -191.03 0 
-259.471 -199.688 0 
-225.478 -63.8895 0 
-222.846 -62.7545 0 
-243.8 -157.524 0 
-238.571 -186.434 0 
-198.739 57.2674 0 
-213.889 1.71209 0 
-223.647 -179.277 0 
-211.385 -179.11 0 
-192.733 -57.8489 0 
-198.148 -192.762 0 
-174.902 -190.268 0 
-232.266 -175.035 0 
-202.158 -184.685 0 
-184.637 -5.51026 0 
-213.555 11.0375 0 
-231.316 -175.729 0 
-237.968 -154.826 0 
-197.795 -38.2347 0 
-188.058 -134.294 0 
-223.906 -21.9057 0 
-225.549 4.91906 0 
-198.535 -32.4558 0 
-218.898 -16.2815 0 
-223.754 8.04742 0 
-144.299 -50.1452 0 
-124.349 54.0373 0 
-207.21 -156.872 0 
-262.853 -152.101 0 
-219.209 -160.75 0 
-206.255 -13.9679 0 
-224.305 -46.618 0 
-232.881 -164.649 0 
-227.78 -204.408 0 
-193.717 -185.794 0 
-203.342 -171.962 0 
-255.968 -219.838 0 
-209.196 -155.59 0 
-177.324 -167.316 0 
-196.594 -189.738 0 
-166.614 -23.5303 0 
-238.321 -215.079 0 
-209.533 -180.703 0 
-222.044 -127.871 0 
-167.73 -147.315 0 
-221.011 -125.535 0 
-154.474 79.226 0 
-264.645 -176.217 0 
-192.602 -171.942 0 
-247.22 -182.022 0 
-222.378 -161.5 0 
-225.108 -151.551 0 
-214.194 -140.597 0 
-209.695 -147.464 0 
-226.721 -178.04 0 
-194.681 -133.719 0 
-198.066 -124.074 0 
-248.817 -146.765 0 
-221.522 -183.847 0 
-172.644 -3.74658 0 
-246.757 -180.515 0 
-184.4 -171.834 0 
-218.343 -197.032 0 
-172.118 -153.099 0 
-205.078 -138.41 0 
-197.379 -126.224 0 
-273.072 -185.436 0 
-218.289 -182.817 0 
-198.563 -172 0 
-187.898 -33.0125 0 
-201.005 -180.08 0 
-170.58 -157.031 0 
-270.099 -161.189 0 
-267.357 -164.698 0 
-236.196 -163.827 0 
-259.77 -170.642 0 
-234.109 -162.554 0 
-251.433 -150.321 0 
-186.323 -165.935 0 
-213.879 -128.247 0 
-207.746 -135.132 0 
-209.703 -133.304 0 
-253.219 -136.078 0 
-211.953 -146.402 0 
-223.681 -152.164 0 
-204.287 -128.152 0 
-173.154 6.8609 0 
-188.62 -173.618 0 
-208.241 -153.18 0 
-197.998 -184.92 0 
-159.271 -48.1038 0 
-211.569 -124.721 0 
-210.869 -149.298 0 
-180.259 114.499 0 
-202.45 -176.417 0 
-251.488 -151.596 0 
-225.079 -119.785 0 
-258.797 -135.608 0 
-215.946 -132.098 0 
-189.227 -121.991 0 
-202.016 -141.93 0 
-239.14 -93.7323 0 
-253.801 -120.783 0 
-268.858 -119.614 0 
-187.591 -157.629 0 
-250.312 -135.301 0 
-165.507 39.0845 0 
-181.253 -131.728 0 
-210.841 -123.506 0 
-216.537 -112.126 0 
-183.242 -127.302 0 
-230.27 -135.559 0 
-223.325 -110.085 0 
-206.467 -115.081 0 
-199.14 -117.49 0 
-210.233 -158.848 0 
-233.825 -98.6695 0 
-216.553 -164.037 0 
-182.458 -158.529 0 
-186.156 -132.931 0 
-166.088 -140.823 0 
-229.087 -130.498 0 
-179.929 43.4401 0 
-169.653 27.9468 0 
-237.376 -153.292 0 
-217.312 -119.658 0 
-224.057 -111.992 0 
-228.168 -131.504 0 
-185.152 -113.723 0 
-231.848 -131.816 0 
-244.387 -149.629 0 
-239.297 -113.943 0 
-226.827 -132.669 0 
-166.667 -59.803 0 
-222.696 -227.138 0 
-181.48 -145.618 0 
-222.532 -101.665 0 
-212.671 -153.361 0 
-235.033 -101.91 0 
-269.131 -143.588 0 
-201.794 -17.0477 0 
-216.066 -120.176 0 
-185.401 -117.481 0 
-225.862 -102.807 0 
-200.052 -125.127 0 
-229.245 -134.8 0 
-170.183 16.3468 0 
-198.164 -97.4544 0 
-203.727 20.5425 0 
-232.724 -119.276 0 
-172.106 -132.211 0 
-239.618 -132.62 0 
-214.961 -134.429 0 
-227.865 -135.291 0 
-206.017 -100.445 0 
-210.283 -128.401 0 
-194.908 -232.399 0 
-257.803 -94.5911 0 
-193.056 -103.472 0 
-233.848 -224.709 0 
-217.609 -119.65 0 
-194.957 -13.9926 0 
-218.254 -107.518 0 
-180.03 -97.9379 0 
-231.571 -137.546 0 
-222.869 -98.4188 0 
-208.404 -95.8584 0 
-245.129 -98.4441 0 
-187.384 -121.607 0 
-196.514 -133.823 0 
-167.865 -77.1092 0 
-179.675 37.7443 0 
-211.261 -112.213 0 
-254.286 -218.553 0 
-258.653 -76.6015 0 
-187.267 -134.575 0 
-219.895 -115.715 0 
-248.09 -74.3085 0 
-213.162 -133.074 0 
-229.412 -106.383 0 
-234.207 -141.629 0 
-272.847 -105.263 0 
-225.585 -98.6452 0 
-183.883 -96.8742 0 
-223.639 -93.8288 0 
-211.899 -101.636 0 
-197.908 -76.9938 0 
-212.133 -59.9479 0 
-238.419 -81.869 0 
-231.232 -76.1477 0 
-231.411 -59.5077 0 
-214.882 -96.8332 0 
-243.535 -131.536 0 
-228.788 -113.729 0 
-212.862 -202.328 0 
-197.006 -63.219 0 
-145.56 45.2966 0 
-167.484 -79.9364 0 
-221.975 -109.569 0 
-196.843 -25.6005 0 
-217.065 -98.3572 0 
-233.522 -249.735 0 
-232.964 -225.41 0 
-229.75 -217.685 0 
-243.993 -68.3987 0 
-205.374 -64.3051 0 
-158.579 -84.9271 0 
-212.215 -99.8412 0 
-197.18 -60.9304 0 
-254.423 -127.668 0 
-196.556 -60.1728 0 
-172.604 -81.2158 0 
-212.434 -37.0165 0 
-186.95 -120.788 0 
-236.169 -182.801 0 
-239.853 -117.418 0 
-184.338 -118.197 0 
-225.508 -230.271 0 
-200.806 -110.425 0 
-207.272 -115.353 0 
-184.76 -98.1664 0 
-202.46 -91.4535 0 
-220.531 -81.7926 0 
-190.745 -100.898 0 
-198.513 -152.672 0 
-222.678 -190.827 0 
-230.009 -219.795 0 
-256.267 -68.255 0 
-173.979 -247.153 0 
-207.22 -176.092 0 
-207.971 -119.502 0 
-224.087 -210.504 0 
-196.752 -228.14 0 
-193.349 -73.314 0 
-216.992 -224.571 0 
-147.566 -85.9256 0 
-190.208 -59.7886 0 
-182.652 -240.583 0 
-166.445 -71.9143 0 
-137.789 -65.3382 0 
-216.754 -222.777 0 
-225.478 -183.762 0 
-208.242 -79.4108 0 
-144.92 21.2683 0 
-198.534 -45.8908 0 
-240.633 -81.1407 0 
-226.005 -104.169 0 
-164.345 -230.894 0 
-225.575 -204.629 0 
-201.72 -183.576 0 
-143.793 -228.866 0 
-227.168 -204.555 0 
-237.486 -216.345 0 
-197.577 -221.048 0 
-215.373 -56.3297 0 
-178.635 -200.324 0 
-220.905 -190.802 0 
-176.115 -203.885 0 
-191.694 -215.313 0 
-183.526 -242.432 0 
-146.795 69.0572 0 
-139.227 -62.8413 0 
-164.317 -50.9096 0 
-190.454 -79.3422 0 
-224.673 -83.2907 0 
-181.083 -225.849 0 
-194.661 -81.5646 0 
-192.13 -70.4364 0 
-204.769 -189.066 0 
-238.941 -103.06 0 
-205.082 -222.854 0 
-182.166 -76.7923 0 
-220.044 -51.3458 0 
-164.351 -112.427 0 
-196.323 -229.573 0 
-229.909 -204.459 0 
-235.592 -183.557 0 
-203.932 -208.666 0 
-219.872 -185.312 0 
-205.717 -224.533 0 
-168.291 -102.391 0 
-165.337 -64.0212 0 
-158.166 -197.602 0 
-250.868 -81.2529 0 
-144.003 -159.995 0 
-160 -50.9095 0 
-179.342 -89.8789 0 
-227.794 -178.885 0 
-160.277 -204.457 0 
-193.394 -78.3641 0 
-218.21 -98.7373 0 
-177.28 -193.098 0 
-242.855 -106.895 0 
-177.899 -50.891 0 
-217.544 -97.6602 0 
-207.153 -204.387 0 
-205.617 -14.4537 0 
-184.716 -20.528 0 
-231.199 -91.8177 0 
-184.176 -72.9981 0 
-225.291 -56.7274 0 
-163.164 -218.562 0 
-203.224 -150.585 0 
-179.402 -169.041 0 
-204.568 -168.055 0 
-227.487 -195.937 0 
-248.028 -177.054 0 
-222.616 -177.997 0 
-207.091 -70.0105 0 
-225.119 -52.2459 0 
-166.528 -196.346 0 
-210.219 -39.5095 0 
-193.386 -214.306 0 
-202.133 -35.7025 0 
-194.815 -51.4359 0 
-212.634 -108.283 0 
-204.116 -148.575 0 
-202.349 -197.466 0 
-210.673 -200.675 0 
-196.474 -215.624 0 