<VTKFile type="UnstructuredGrid" version="0.1" byte_order="BigEndian">
  <UnstructuredGrid>
        <Piece NumberOfPoints="8000" NumberOfCells="0" Time= "0.335">      <Points>
        <DataArray name="Position" type="Float32"  NumberOfComponents= "3"  format="ascii">

64.569 23.6477 0 
66.1675 31.5826 0 
67.121 27.9826 0 
68.1383 38.5732 0 
70.986 14.8493 0 
70.4547 25.3017 0 
70.5269 28.0923 0 
71.3292 28.4822 0 
69.1702 29.0361 0 
70.2158 31.9075 0 
70.5369 35.9503 0 
70.6561 39.4661 0 
72.9942 27.0614 0 
72.3328 28.4914 0 
73.7659 31.0738 0 
72.9922 30.0198 0 
73.0941 31.2692 0 
73.7861 32.8145 0 
73.3108 38.0824 0 
71.8249 37.2909 0 
76.181 1.58218 0 
74.3428 1.74581 0 
75.1261 4.64034 0 
75.4449 2.14914 0 
76.4396 3.20832 0 
75.7825 3.27484 0 
74.2811 4.53813 0 
76.3302 3.94965 0 
75.6718 7.13382 0 
75.2694 8.53705 0 
75.7467 8.59244 0 
75.5463 12.8912 0 
76.2474 11.3083 0 
76.1021 14.0786 0 
75.3253 14.2908 0 
74.8448 13.3932 0 
75.4421 15.0705 0 
75.7991 16.296 0 
75.9969 17.8728 0 
74.5523 18.518 0 
75.6703 20.541 0 
75.013 21.1891 0 
75.7104 23.545 0 
75.6245 22.1762 0 
76.3052 23.0972 0 
75.4172 24.1532 0 
74.3337 24.943 0 
75.9745 24.6068 0 
74.7353 23.8756 0 
74.9235 25.2069 0 
76.0979 25.5871 0 
75.2092 28.0959 0 
75.9984 28.2179 0 
76.6029 26.8987 0 
75.0755 27.8107 0 
74.325 28.9604 0 
74.058 30.8416 0 
76.0503 31.4979 0 
75.5965 30.3706 0 
76.3718 30.2821 0 
76.0539 30.7336 0 
75.9778 32.3066 0 
76.0481 30.6575 0 
74.8313 33.3121 0 
74.1862 34.2009 0 
73.9174 31.9221 0 
75.8015 33.1456 0 
76.0433 36.512 0 
75.7442 36.8153 0 
76.2377 37.3072 0 
74.048 37.6225 0 
78.5306 0.8192 0 
76.8717 1.61781 0 
78.822 1.6731 0 
77.5137 39.686 0 
77.494 1.91842 0 
78.8476 5.14302 0 
76.9916 4.5824 0 
78.9962 2.37923 0 
78.229 2.65936 0 
77.9905 5.53333 0 
77.2655 7.0748 0 
78.0499 5.73916 0 
79.2418 5.25182 0 
78.3298 6.25206 0 
76.9727 5.42907 0 
76.9914 6.37419 0 
77.8472 9.18639 0 
78.5733 8.03583 0 
77.9019 8.57554 0 
77.2438 9.35642 0 
78.8734 8.17933 0 
78.0977 7.50399 0 
77.9332 11.6004 0 
77.074 11.6891 0 
77.8393 11.4124 0 
78.4089 13.223 0 
78.2733 13.3283 0 
78.1617 16.6604 0 
78.8915 16.0366 0 
78.7316 16.3479 0 
77.7606 15.5228 0 
77.897 16.6023 0 
77.7892 18.2259 0 
77.666 17.6396 0 
77.1979 16.7039 0 
77.2113 19.2671 0 
77.8294 20.4644 0 
78.7068 22.4042 0 
78.0771 22.1775 0 
78.1628 21.0652 0 
77.3159 21.3594 0 
78.1534 23.5936 0 
79.2337 24.9341 0 
77.4561 23.2152 0 
78.1487 22.1642 0 
77.8956 24.4905 0 
78.6736 26.4081 0 
77.8923 24.9386 0 
77.7945 27.0524 0 
76.8261 27.3671 0 
79.2318 27.8125 0 
77.0304 27.8904 0 
77.7375 28.9464 0 
78.8513 29.5561 0 
78.4443 28.9217 0 
77.0055 29.7122 0 
77.9578 31.0748 0 
76.7429 29.6774 0 
78.3782 29.4073 0 
77.9838 33.6109 0 
78.6207 34.4092 0 
76.8432 34.0402 0 
78.8815 32.8788 0 
77.3566 33.2318 0 
78.3563 32.0506 0 
78.122 32.9695 0 
78.6102 34.1191 0 
76.956 32.1448 0 
77.4116 33.7935 0 
76.9547 33.0157 0 
76.9439 36.1899 0 
77.6897 37.2304 0 
77.2967 37.0928 0 
78.8964 34.9767 0 
78.423 36.3174 0 
77.1894 34.7339 0 
78.0454 36.8949 0 
78.7832 36.989 0 
78.7707 35.9613 0 
78.6657 37.3947 0 
78.2405 37.8008 0 
78.985 37.8982 0 
77.8732 2.48233 0 
76.4746 39.2137 0 
79.3905 0.854984 0 
80.4993 38.5887 0 
79.8664 0.964276 0 
80.8912 1.61086 0 
80.7736 0.432239 0 
79.5537 1.89571 0 
81.1748 0.293814 0 
79.4473 0.858496 0 
79.7674 1.49709 0 
81.2035 0.718328 0 
80.5501 2.59065 0 
80.616 3.99234 0 
81.0477 2.37643 0 
79.8697 3.54034 0 
80.9645 4.07982 0 
80.0449 4.58951 0 
80.0155 4.32916 0 
80.3379 2.31786 0 
78.8493 3.43982 0 
79.4737 3.86287 0 
79.3311 2.50017 0 
79.0888 3.40806 0 
80.1242 2.90222 0 
79.6867 3.25895 0 
81.034 4.06168 0 
79.0273 4.40836 0 
79.0525 3.14628 0 
80.063 2.76883 0 
80.2095 2.01729 0 
79.4015 4.79118 0 
81.5096 4.26688 0 
81.5175 4.8994 0 
79.5207 7.2437 0 
80.2761 6.18169 0 
80.47 4.80592 0 
81.0888 5.06995 0 
80.5726 6.69945 0 
79.9001 6.65902 0 
80.3232 5.06297 0 
80.6768 6.07305 0 
81.5063 7.55816 0 
81.2604 5.63633 0 
79.5311 5.69795 0 
81.3457 8.26551 0 
80.0636 7.72445 0 
80.4403 9.63815 0 
79.8718 7.24009 0 
80.6627 8.01986 0 
80.5143 8.94536 0 
79.517 7.3911 0 
80.1734 8.18782 0 
81.2723 8.04459 0 
79.5191 12.014 0 
79.6741 10.5254 0 
80.2399 11.85 0 
80.8387 11.1372 0 
78.9601 10.1548 0 
81.4108 11.8546 0 
80.8535 13.1505 0 
79.4231 14.1772 0 
81.4595 14.6339 0 
80.0112 13.7125 0 
80.6898 12.9877 0 
81.5106 13.2766 0 
79.5893 12.9232 0 
79.6361 14.8452 0 
81.0996 15.13 0 
79.032 14.8142 0 
80.8019 15.83 0 
78.9915 17.1319 0 
79.4072 17.4134 0 
80.6322 17.5712 0 
80.012 15.1663 0 
80.0556 15.8654 0 
80.8697 16.9519 0 
79.8117 16.7936 0 
80.8923 17.5035 0 
80.8769 18.2765 0 
80.2528 18.9397 0 
81.2161 17.1082 0 
79.8374 19.4622 0 
80.1603 17.8474 0 
80.7399 16.4861 0 
80.5188 18.0326 0 
80.1158 18.2288 0 
80.6217 18.1744 0 
80.1334 18.403 0 
80.9931 17.0521 0 
79.3128 17.7062 0 
79.9636 18.1498 0 
81.3654 17.935 0 
79.8571 19.7589 0 
81.3308 20.6319 0 
81.1051 19.7766 0 
79.1293 20.8593 0 
79.3493 21.703 0 
81.6329 21.9338 0 
79.5401 20.2788 0 
80.3948 19.797 0 
81.2659 21.0301 0 
79.1277 23.4955 0 
80.1967 22.6253 0 
79.1681 22.1486 0 
79.1675 24.3028 0 
79.9873 22.5885 0 
81.088 24.0216 0 
79.74 23.8309 0 
81.5176 22.6698 0 
80.3061 26.2194 0 
79.9505 25.9904 0 
80.4575 24.3142 0 
80.97 26.0882 0 
81.1174 25.3336 0 
79.835 25.5793 0 
78.9984 25.3376 0 
79.7163 25.5135 0 
79.8769 27.0501 0 
80.1877 26.2612 0 
81.1528 26.0787 0 
79.6655 24.6444 0 
81.3785 26.4376 0 
81.0033 25.9386 0 
79.4712 27.2641 0 
79.7651 27.3131 0 
80.9356 28.6993 0 
79.4332 26.9279 0 
80.9635 28.6319 0 
81.1784 28.3725 0 
80.2803 28.6924 0 
79.562 28.892 0 
80.2479 27.7174 0 
79.9084 28.176 0 
81.5941 27.9121 0 
81.6274 28.5979 0 
80.5448 28.4094 0 
79.8749 29.656 0 
80.1363 28.216 0 
80.7746 29.4287 0 
79.7692 30.3224 0 
80.9318 30.1343 0 
80.7529 32.5163 0 
81.2708 30.891 0 
78.9927 30.9022 0 
79.834 29.6179 0 
81.3557 31.1 0 
80.9541 29.5176 0 
81.4044 29.5215 0 
79.5209 29.7976 0 
79.9255 30.3179 0 
81.4707 31.2225 0 
79.1755 30.9623 0 
81.1171 30.9315 0 
80.2789 29.9785 0 
79.6067 30.4576 0 
81.0375 31.2429 0 
80.0814 33.3656 0 
81.3559 32.3478 0 
79.8374 33.754 0 
80.7041 33.5765 0 
79.7544 32.6259 0 
81.1721 33.9443 0 
79.5188 34.5133 0 
80.589 34.2273 0 
79.9344 33.035 0 
80.6509 33.3024 0 
79.2297 33.9785 0 
80.8947 32.2684 0 
79.6769 31.9906 0 
80.7772 35.5601 0 
80.6876 35.5847 0 
80.7566 35.3278 0 
81.2705 36.6051 0 
80.9009 35.6494 0 
79.1399 36.0831 0 
79.7239 35.9227 0 
80.1071 35.4106 0 
81.5916 36.3997 0 
80.1862 36.9924 0 
81.4599 35.3144 0 
81.0259 36.5855 0 
81.5699 37.6348 0 
80.6838 36.0547 0 
80.0596 36.2867 0 
79.453 37.9558 0 
80.1741 38.139 0 
80.4333 38.9899 0 
79.6648 39.7323 0 
80.8817 38.9113 0 
81.0016 38.2933 0 
80.6996 37.824 0 
80.3287 39.6561 0 
81.3556 36.8826 0 
82.4342 1.83007 0 
83.079 0.0900243 0 
82.9973 39.8705 0 
81.7613 0.368173 0 
82.845 0.279703 0 
83.0581 2.69586 0 
83.9972 39.9179 0 
82.7153 39.3822 0 
83.1371 0.464044 0 
83.7994 1.38601 0 
82.177 1.1406 0 
81.5537 2.36992 0 
83.8202 2.89285 0 
83.3856 3.77107 0 
81.921 2.97153 0 
82.4453 2.93885 0 
83.7303 2.52889 0 
82.7346 4.35773 0 
82.3366 6.50108 0 
82.6779 6.6263 0 
83.3814 4.98118 0 
82.735 6.4227 0 
81.8854 5.87509 0 
84.0455 5.29509 0 
82.6072 5.91907 0 
82.0172 5.69733 0 
81.9037 7.06257 0 
82.8178 5.06732 0 
82.2496 7.17384 0 
83.7047 9.61021 0 
83.6702 9.56839 0 
82.2728 7.87475 0 
82.7719 8.25623 0 
83.7979 8.94413 0 
82.8858 8.47981 0 
82.1238 8.23562 0 
82.8841 8.35381 0 
83.4062 8.15865 0 
83.8723 7.38685 0 
81.7794 10.2898 0 
82.5498 9.54565 0 
83.5344 8.89839 0 
82.1663 9.34668 0 
82.5941 11.6529 0 
81.5975 12.2059 0 
82.6617 11.6776 0 
83.2427 11.5702 0 
82.8991 10.2065 0 
82.6002 10.3828 0 
83.5072 9.65087 0 
83.2733 12.3004 0 
81.8661 11.4741 0 
83.6857 9.64156 0 
82.3542 11.1655 0 
83.1097 11.7218 0 
83.1842 11.6198 0 
82.937 10.97 0 
83.5877 11.6576 0 
83.5879 13.351 0 
82.388 12.7058 0 
82.9408 13.4564 0 
82.3273 13.1066 0 
84.117 13.708 0 
83.5774 12.7969 0 
82.8221 12.4025 0 
82.7536 13.2747 0 
83.5599 12.8102 0 
83.5568 13.1889 0 
83.909 12.9239 0 
82.8287 12.3698 0 
84.1738 14.2546 0 
82.8405 16.378 0 
82.7157 15.2586 0 
81.6996 15.2844 0 
82.0035 14.9311 0 
83.3279 17.4518 0 
82.2368 16.4219 0 
82.0741 15.2124 0 
83.3344 15.9686 0 
82.0288 16.7415 0 
84.2584 15.6454 0 
81.8228 16.0472 0 
81.4166 16.3221 0 
82.0957 15.6274 0 
83.4694 16.9231 0 
81.6181 16.2054 0 
81.3417 16.2863 0 
82.9136 15.4863 0 
82.4133 16.6219 0 
81.8955 16.8086 0 
83.3103 17.4309 0 
81.9697 19.1415 0 
83.9079 18.4567 0 
83.7535 18.9919 0 
83.1709 19.6905 0 
83.6722 18.424 0 
81.8265 17.6578 0 
83.7993 18.1129 0 
81.7757 17.6715 0 
83.3881 19.2741 0 
81.9959 17.8612 0 
83.6952 17.3206 0 
83.4338 17.5807 0 
82.5864 17.5724 0 
83.8066 18.5323 0 
83.1152 18.3358 0 
82.5432 19.9275 0 
83.0655 21.4075 0 
82.3263 19.7389 0 
83.6839 20.7291 0 
82.3899 19.2345 0 
83.2518 19.2984 0 
83.4787 20.6022 0 
82.5249 21.7582 0 
81.487 19.042 0 
81.7931 20.1783 0 
82.5747 21.2847 0 
81.7285 20.2199 0 
82.015 21.4587 0 
82.0692 20.9988 0 
82.7901 20.6074 0 
83.1962 20.5584 0 
83.2546 22.8001 0 
83.4294 23.1898 0 
82.949 23.4792 0 
83.3162 24.2503 0 
82.057 23.7643 0 
82.3246 23.3923 0 
83.5173 23.6073 0 
83.2752 24.7556 0 
82.3607 23.6096 0 
82.7264 23.9664 0 
82.9443 22.5057 0 
81.9031 22.0624 0 
83.8974 22.9581 0 
82.7213 23.4612 0 
83.8286 25.2871 0 
81.9685 25.343 0 
81.4008 24.8672 0 
83.9235 26.2767 0 
81.6476 24.2131 0 
82.6709 26.4524 0 
83.8611 24.7661 0 
83.0689 25.1813 0 
82.922 26.5698 0 
83.9385 26.1439 0 
82.7982 24.9266 0 
83.5809 27.4131 0 
82.8402 24.7786 0 
83.6873 24.6352 0 
81.7934 26.1467 0 
83.8127 24.7573 0 
83.6404 25.6484 0 
81.962 27.9062 0 
81.9186 27.2056 0 
83.3598 27.9395 0 
83.3211 28.6061 0 
82.1427 27.6149 0 
81.6568 27.1275 0 
81.5348 28.8623 0 
82.0867 29.2202 0 
81.911 27.2422 0 
82.7603 26.7101 0 
82.3566 29.0641 0 
83.5788 29.302 0 
82.3199 29.352 0 
82.0779 27.4835 0 
81.4644 27.192 0 
82.167 28.6328 0 
83.6123 28.3822 0 
[...]
      <PointData Vectors="vector">
        <DataArray type="Float32" Name="Velocity" NumberOfComponents="3" format="ascii">

-247.14 -185.82 0 
-217.522 -134.619 0 
-231.477 -103.832 0 
-213.056 -121.917 0 
-204.114 -67.0263 0 
-180.913 -28.5737 0 
-198.753 -7.26016 0 
-211.869 -119.353 0 
-218.474 -119.089 0 
-184.308 35.7558 0 
-222.551 -80.1046 0 
-196.95 -77.3025 0 
-209.093 -99.2811 0 
-178.278 72.2329 0 
-187.13 -53.284 0 
-177.559 -43.1897 0 
-140.39 100.227 0 
-175.447 10.8137 0 
-188.71 2.25166 0 
-173.504 -147.876 0 
-195.804 -139.635 0 
-183.444 -160.135 0 
-192.107 -123.98 0 
-230.242 -152.811 0 
-226.79 -146.806 0 
-218.298 -90.014 0 
-192.462 -120.357 0 
-215.346 -120.689 0 
-203.534 -108.165 0 
-219.61 -64.5533 0 
-208.886 -71.3146 0 
-185.368 -59.6726 0 
-193.285 -91.185 0 
-236.163 -96.4963 0 
-208.7 -72.2593 0 
-206.247 -99.5272 0 
-246.365 -87.6895 0 
-183.075 91.8517 0 
-191.915 -44.7248 0 
-142.133 90.7761 0 
-169.023 -43.2985 0 
-178.422 -38.0591 0 
-189.213 -30.6207 0 
-229.565 -83.2595 0 
-221.446 -52.5323 0 
-216.833 -61.3211 0 
-192.55 -53.0517 0 
-149.311 99.6363 0 
-183.966 -46.1183 0 
-134.218 90.0824 0 
-206.463 1.11169 0 
-198.97 -44.8182 0 
-133.588 112.652 0 
-184.745 -46.4619 0 
-250.538 -196.582 0 
-185.327 -2.07342 0 
-258.107 -159.842 0 
-188.965 -129.29 0 
-235.187 -182.753 0 
-250.441 -147.094 0 
-210.962 -130.978 0 
-186.986 -161.042 0 
-228.938 -152.462 0 
-181.315 -134.909 0 
-228.708 -123.098 0 
-164.087 -18.3067 0 
-236.942 -155.277 0 
-242.74 -103.39 0 
-172.289 -157.853 0 
-202.98 -164.437 0 
-254.628 -95.7051 0 
-220.34 -88.7209 0 
-263.181 -129.905 0 
-190.355 -141.421 0 
-190.854 -135.794 0 
-206.218 -143.092 0 
-257.036 -104.132 0 
-204.848 -128.079 0 
-189.251 10.6276 0 
-209.961 -92.4757 0 
-185.784 61.0455 0 
-216.401 -169.492 0 
-171.22 -103.908 0 
-219.954 45.9245 0 
-203.51 -80.4643 0 
-189.312 -81.0478 0 
-203.077 -77.9643 0 
-198.559 -116.706 0 
-232.408 -97.6227 0 
-188.321 -82.5902 0 
-240.83 -81.7261 0 
-170.616 -62.6258 0 
-183.957 -94.0448 0 
-181.953 -99.6815 0 
-207.808 -94.4571 0 
-243.515 -142.96 0 
-174.845 -61.6642 0 
-196.791 -102.227 0 
-203.152 -61.4525 0 
-178.057 -99.4922 0 
-227.055 -112.115 0 
-131.02 73.5625 0 
-185.942 -72.6752 0 
-211.438 -117.159 0 
-217.754 -41.9552 0 
-247.069 -91.4741 0 
-188.094 -95.1448 0 
-235.799 -57.4492 0 
-200.754 -80.0019 0 
-232.168 -68.2812 0 
-240.503 -59.2766 0 
-253.865 -96.2352 0 
-188.974 -31.425 0 
-205.298 -70.4853 0 
-173.927 75.5632 0 
-200.761 -80.1655 0 
-174.489 79.4798 0 
-178.566 -59.1401 0 
-152.437 -63.6242 0 
-129.545 83.4976 0 
-197.029 -80.0537 0 
-194.251 -71.098 0 
-195.551 -48.0922 0 
-212.058 -42.4229 0 
-204.343 -41.6705 0 
-232.781 -47.2005 0 
-157.791 -35.981 0 
-212.038 -75.6069 0 
-161.282 3.33389 0 
-212.301 0.323845 0 
-180.128 -47.5196 0 
-215.965 -27.167 0 
-201.418 -23.6233 0 
-244.275 -213.59 0 
-196.239 19.5162 0 
-172.804 -32.3826 0 
-141.268 82.3777 0 
-179.898 -25.5513 0 
-199.605 -32.4445 0 
-186.767 -157.78 0 
-185.493 -192.986 0 
-207.05 -8.21787 0 
-243.562 -0.0028213 0 
-169.912 -3.68188 0 
-190.585 138.307 0 
-153.041 -23.4568 0 
-194.939 -15.2712 0 
-210.514 -144.062 0 
-139.953 -6.47937 0 
-193.374 -153.042 0 
-210.553 10.7478 0 
-136.206 113.227 0 
-232.94 -13.3932 0 
-226.654 -185.554 0 
-171.894 -1.71673 0 
-142.922 19.9593 0 
-190.365 -152.209 0 
-217.275 -169.636 0 
-167.77 26.7224 0 
-154.728 -0.957569 0 
-240.718 -157.827 0 
-205.052 -157.042 0 
-255.111 -148.592 0 
-219.568 -117.308 0 
-235.922 -120.559 0 
-144.015 10.6066 0 
-180.586 1.77379 0 
-201.216 -171.989 0 
-212.799 -146.805 0 
-234.278 -162.265 0 
-198.045 -120.206 0 
-222.322 -127.855 0 
-242.772 -167.1 0 
-231.611 -97.4632 0 
-257.844 -167.796 0 
-240.883 -135.7 0 
-260.825 -154.75 0 
-205.147 -170.33 0 
-204.328 -143.405 0 
-161.696 32.7003 0 
-211.599 -14.351 0 
-143.574 5.11583 0 
-189.9 -146.664 0 
-198.162 -134.666 0 
-161.557 5.81762 0 
-175.717 -96.0196 0 
-189.808 17.2796 0 
-194.108 -131.819 0 
-177.566 -162.126 0 
-178.979 -11.1224 0 
-204.109 -122.579 0 
-163.476 -138.983 0 
-208.166 -90.0506 0 
-185.472 -84.9777 0 
-219.764 -107.182 0 
-202.363 -163.401 0 
-188.921 -147.607 0 
-170.016 -113.058 0 
-157.226 -104.945 0 
-221.869 -67.5883 0 
-139.517 -82.7927 0 
-200.53 -51.1097 0 
-200.996 5.44213 0 
-202.189 19.4239 0 
-156.635 -83.635 0 
-149.53 39.4298 0 
-187.121 -130.481 0 
-207.303 27.4998 0 
-215.364 -114.777 0 
-189.147 -106.84 0 
-193.753 -101.01 0 
-175.873 -54.709 0 
-207.5 -79.5899 0 
-218.187 -83.8642 0 
-221.481 -131.714 0 
-178.535 -112.601 0 
-167.007 49.7431 0 
-196.183 -97.2986 0 
-211.747 -129.076 0 
-187.172 -49.2958 0 
-181.556 91.1443 0 
-142.888 -72.8389 0 
-197.862 -97.5118 0 
-232.834 -63.736 0 
-197.912 -104.843 0 
-193.906 -61.0578 0 
-180.635 -102.134 0 
-194.132 -83.0711 0 
-181.69 -107.93 0 
-212.161 -75.2798 0 
-196.313 -106.839 0 
-178.225 -90.6083 0 
-179.724 -104.883 0 
-243.915 -93.8628 0 
-180.548 -62.0744 0 
-137.465 97.7907 0 
-164.024 -56.1859 0 
-225.062 -71.4986 0 
-200.32 -100.63 0 
-214.456 -94.6095 0 
-183.845 -77.773 0 
-159.667 106.133 0 
-230.977 -98.2551 0 
-181.649 -90.227 0 
-120.063 46.1083 0 
-180.751 -69.3938 0 
-174.946 -91.9643 0 
-175.097 -40.1059 0 
-237.43 -49.6362 0 
-210.143 -46.571 0 
-173.257 59.4876 0 
-225.314 -80.9922 0 
-188.539 -54.8003 0 
-223.203 -72.7165 0 
-209.345 -75.8844 0 
-163.492 -72.885 0 
-138.442 105.808 0 
-172.349 -61.8646 0 
-164.318 -82.5993 0 
-180.48 -74.8972 0 
-234.502 -52.4431 0 
-228.576 -52.5792 0 
-171.207 89.8419 0 
-209.097 -63.406 0 
-193.742 -70.7994 0 
-170.525 -52.2726 0 
-154.225 -95.3944 0 
-214.022 -38.7353 0 
-214.444 -92.7428 0 
-163.12 89.9361 0 
-110.485 90.4245 0 
-211.779 -16.2426 0 
-190.836 107.363 0 
-184.754 -53.928 0 
-191.92 -209.014 0 
-163.48 -221.442 0 
-208.301 -51.143 0 
-196.67 -52.967 0 
-184.148 -41.5896 0 
-204.579 -49.7299 0 
-208.135 -55.4992 0 
-190.822 -41.8192 0 
-197.424 -184.652 0 
-244.959 -200.581 0 
-184.691 -205.046 0 
-137.195 -171.024 0 
-192.241 -168.97 0 
-260.749 -15.2395 0 
-211.689 -215.667 0 
-206.829 -3.11191 0 
-212.207 -1.76252 0 
-194.932 -185.597 0 
-165.922 -188.815 0 
-230.821 -39.7534 0 
-210.532 -59.4915 0 
-186.608 -17.6591 0 
-190.354 20.9497 0 
-199.335 -26.7664 0 
-237.915 -35.0615 0 
-205.445 9.94759 0 
-182.733 -6.15391 0 
-221.674 -154.365 0 
-226.908 -180.569 0 
-225.026 -140.375 0 
-237.928 -153.179 0 
-217.952 -144.241 0 
-197.563 -190.685 0 
-196.999 14.9609 0 
-177.426 25.2002 0 
-215.747 -207.306 0 
-200.15 -173.215 0 
-177.781 -185.602 0 
-203.804 -22.9953 0 
-194.189 -16.4786 0 
-159.323 18.8265 0 
-154.364 -35.3483 0 
-204.078 -170.566 0 
-191.934 -138.213 0 
-185.623 -41.1964 0 
-214.017 -155.866 0 
-149.423 6.32664 0 
-158.597 -154.356 0 
-168.029 3.18927 0 
-186.383 4.34173 0 
-190.293 -178.328 0 
-176.128 -182.004 0 
-179.285 -165.625 0 
-190.588 -140.588 0 
-211.238 -149.705 0 
-191.5 -145.449 0 
-227.219 -116.708 0 
-170.858 -171.515 0 
-161.968 21.7473 0 
-160.031 -144.028 0 
-168.793 -180.97 0 
-195.106 -181.413 0 
-215.943 -155.507 0 
-238.068 -136.633 0 
-229.448 -132.767 0 
-192.373 -121.044 0 
-233.853 -158.37 0 
-221.238 -143.703 0 
-216.515 -141.266 0 
-146.974 -146.28 0 
-233.912 -178.119 0 
-194.455 -123.169 0 
-153.753 24.5332 0 
-151.747 -137.375 0 
-198.254 -183.368 0 
-212.018 -162.305 0 
-213.349 -138.878 0 
-249.554 -114.019 0 
-212.5 -167.566 0 
-226.76 -135.914 0 
-207.62 -135.804 0 
-207.921 -107.893 0 
-213.931 -110.849 0 
-238.449 -117.986 0 
-196.159 -151.594 0 
-170.167 15.9736 0 
-224.358 -151.562 0 
-224.404 -116.587 0 
-185.909 -167.771 0 
-215.841 -121.01 0 
-147.146 -129.032 0 
-140.31 34.3964 0 
-135.866 14.0361 0 
-182.423 -0.806219 0 
-193.865 -131.067 0 
-170.623 -135.107 0 
-150.576 -103.004 0 
-240.292 -139.881 0 
-172.234 -142.959 0 
-164.557 -145.937 0 
-209.334 -103.469 0 
-155.675 -136.258 0 
-210.516 -130.396 0 
-175.509 -40.0782 0 
-194.935 -111.898 0 
-198.76 -126.432 0 
-187.367 -146.578 0 
-216.878 -125.575 0 
-191.775 -117.177 0 
-215.136 -125.97 0 
-180.053 -104.087 0 
-173.317 -143.972 0 
-134.546 36.2967 0 
-176.709 30.9484 0 
-160.356 40.8509 0 
-187.817 -94.4795 0 
-165.201 -106.448 0 
-165.461 -101.938 0 
-184.111 -86.8702 0 
-188.405 -118.974 0 
-212.815 -123.855 0 
-209.547 -97.0867 0 
-177.804 -112.633 0 
-189.126 -131.29 0 
-221.069 -64.8946 0 
-219.002 -107.906 0 
-229.105 -116.667 0 
-254.3 -55.5165 0 
-236.885 -89.4584 0 
-223.045 -127.638 0 
-232.132 -109.358 0 
-221.727 -89.8897 0 
-229.305 -98.5918 0 
-168.564 -114.509 0 
-175.57 -75.581 0 
-153.884 -120.026 0 
-155.298 -70.0296 0 
-187.134 31.9682 0 
-208.499 -77.8678 0 
-190.115 -81.6508 0 
-148.492 37.8377 0 
-206.504 -129.825 0 
-198.494 -132.114 0 
-190.616 -128.273 0 
-174.957 -120.908 0 
-170.715 -90.8155 0 
-272.083 -107.052 0 
-197.901 -60.2217 0 
-197.902 -93.8592 0 
-186.029 -52.6883 0 
-150.26 59.139 0 
-138.73 -48.5379 0 
-182.685 -102.75 0 
-176.549 35.3344 0 
-178.35 -105.399 0 
-157.406 80.1625 0 
-131.951 69.2359 0 
-199.584 -122.696 0 
-210.354 -118.545 0 
-205.215 -117.175 0 
-229.707 -120.401 0 
-144.905 -73.3828 0 
-152.63 -55.6999 0 
-181.215 -102.537 0 
-173.357 -73.3211 0 
-160.063 -122.304 0 
-213.215 -86.4204 0 
-210.258 -89.2829 0 
-155.878 -70.4901 0 
-184.215 -92.0243 0 
-178.669 -113.161 0 
-225.354 -102.688 0 
-167.337 -68.3883 0 
-134.577 -104.321 0 
-216.666 -89.1777 0 
-186.65 -51.0173 0 
-186.923 -61.0525 0 
-188.96 -95.2926 0 
-200.146 -67.7125 0 
-213.208 -68.8688 0 
-216.45 -64.4687 0 
-133.634 -89.2122 0 
-255.861 -70.0184 0 
-176.461 -39.9844 0 
-159.156 -64.8602 0 
-156.188 -74.3707 0 
-138.39 -60.7195 0 
-155.313 -41.6114 0 
-170.307 -63.9184 0 
-184.875 -56.1712 0 
-184.819 -56.9947 0 
-166.943 -67.8803 0 
-187.944 -35.6614 0 
-214.819 -47.3059 0 
-228.038 -67.1711 0 
-153.849 -52.8569 0 
-229.581 -83.4768 0 
-206.295 -71.6041 0 
-221.368 -78.6085 0 
-162.217 -82.5412 0 
-208.224 -89.1778 0 
-209.997 -85.1013 0 
-169.15 -85.0069 0 
-158.753 -80.0682 0 
-219.17 -66.028 0 
-178.008 -61.1384 0 
-183.029 -80.9312 0 
-200.978 -60.9647 0 
-212.741 -44.6072 0 
-222.99 21.8483 0 
-157.866 -48.4901 0 
-159.763 -46.7481 0 
-201.268 -46.5493 0 
-166.124 -49.4555 0 
-159.573 -64.3602 0 
-205.295 -20.568 0 
-202.439 -42.5496 0 
-180.608 -14.7864 0 
-137.522 91.165 0 
-181.489 -14.5468 0 
-197.23 -53.9114 0 
-154.145 -58.652 0 
-164.098 -56.4324 0 
-193.563 -59.0742 0 
-230.309 -88.6556 0 
-112.773 118.561 0 
-162.407 -47.4189 0 
-200.109 -57.4992 0 
-199.45 21.135 0 
-206.061 -47.2669 0 
-172.815 -44.8316 0 
-192.737 -60.773 0 
-199.501 -252.323 0 
-197.202 -35.2818 0 
-219.101 -25.541 0 
-198.853 -210.857 0 
-182.228 -43.8403 0 
-212.184 -55.0714 0 
-185.42 27.4198 0 
-148.472 -23.8912 0 
-182.335 -26.6751 0 
-182.296 109.052 0 
-218.832 -150.85 0 
-208.555 -206.081 0 
-165.903 3.0738 0 
-201.94 -144.199 0 
-116.551 97.7121 0 
-183.38 7.70866 0 
-143.956 -135.124 0 
-185.244 -30.481 0 
-210.964 -211.403 0 
-222.05 -220.742 0 
-191.703 11.6126 0 
-182.022 2.22294 0 
-178.633 -152.42 0 
-155.025 -59.0221 0 
-152.303 -28.5743 0 
-206.639 3.46304 0 
-214.895 -179.378 0 
-150.504 111.849 0 
-175.699 -184 0 
-170.735 117.243 0 
-197.087 5.78831 0 
-218.549 -15.8288 0 
-146.354 -220.045 0 
-199.556 -149.901 0 
-152.495 -181.618 0 
-195.808 -202.668 0 
-234.839 -142.71 0 
-146.153 -192.099 0 
-200.113 -9.96946 0 
-153.203 -23.8806 0 
-140.13 11.7428 0 
-192.067 -8.37925 0 
-207.739 -34.4484 0 
-135.676 -166.29 0 
-142.436 -12.0219 0 
-198.599 19.129 0 
-210.993 -166.335 0 
-205.505 -188.784 0 
-200.526 -177.532 0 
-218.223 -171.525 0 
-199.346 -185.404 0 
-234.415 -123.235 0 
-196.157 -156.6 0 
-226.571 -151.554 0 
-201.84 -168.342 0 
-220.748 -195.835 0 
-170.664 -155.868 0 
-226.449 42.3339 0 
-203.674 -188.073 0 
-224.237 -154.096 0 
-210.801 8.2122 0 
-146.935 -175.206 0 
-203.608 -179.777 0 
-175.664 -142.049 0 
-169.71 -178.69 0 
-233.36 -159.116 0 
-219.5 -152.84 0 
-224.384 -125.819 0 
-205.002 -142.533 0 
-186.327 -152.458 0 
-223.683 -166.479 0 
-209.559 -157.715 0 
-222.772 -118.024 0 
-169.658 -167.392 0 
-204.597 -146.924 0 
-156.467 -190.664 0 
-101.914 -3.98766 0 
-198.778 -195.264 0 
-172.409 53.8799 0 
-153.372 -12.2888 0 
-137.386 15.8867 0 
-169.169 -33.4236 0 
-149.938 67.5448 0 
-217.482 -150.019 0 
-203.662 -171.444 0 
-206.288 -146.237 0 
-178.571 -158.526 0 
-219.013 -163.093 0 
-182.092 -151.748 0 
-220.017 -170.574 0 
-211.131 -160.082 0 
-221.358 -145.323 0 
-178.285 -110.98 0 
-168.775 -151.007 0 
-237.637 -147.802 0 
-215.13 -177.699 0 
-217.474 -138.58 0 
-194.914 -164.144 0 
-230.508 -161.052 0 
-213.548 10.0567 0 
-187.963 -153.745 0 
-203.084 -175.392 0 
-208.966 -161.402 0 
-137.233 6.6482 0 
-212.824 -152.604 0 
-170.028 -171.071 0 
-211.287 -121.447 0 
-198.087 -93.3289 0 
-171.847 -148.801 0 
-175.67 -114.565 0 
-182.017 -117.719 0 
-173.926 -157.629 0 
-193.708 -98.6837 0 
-152.59 -127.559 0 
-208.499 -150.655 0 
-174.602 -144.965 0 
-184.053 -126.807 0 
-161.701 -137.309 0 
-150.647 -149.353 0 
-180.859 -116.348 0 
-213.094 -120.275 0 
-182.365 -176.166 0 
-161.698 -21.0339 0 
-211.308 -114.199 0 
-219.277 -113.044 0 
-202.837 -138.33 0 
-223.719 -121.597 0 
-178.476 -96.99 0 
-216.603 -118.921 0 
-225.547 -126.751 0 
-206.638 -118.255 0 
-172.496 -127.968 0 
-176.912 -127.623 0 
-181.719 -151.47 0 
-191.404 -167.718 0 
-172.408 -138.6 0 
-177.761 -3.53384 0 
-230.37 -151.656 0 
-188.648 -154.075 0 
-209.271 -150.05 0 
-210.112 -159.71 0 
-225.142 -134.153 0 
-173.434 -153.472 0 
-214.256 -171.211 0 
-145.73 -125.389 0 
-166.615 -120.101 0 
-187.556 -143.969 0 
-185.273 -125.31 0 
-253.556 -131.574 0 
-147.339 45.0934 0 
-148.933 7.49887 0 
-216.724 -135.473 0 
-202.722 -96.3861 0 
-214.192 -77.9238 0 
-210.744 -104.936 0 
-181.092 -100.592 0 
-203.293 -101.35 0 
-208.324 -122.942 0 
-120.957 43.1417 0 
-174.655 -110.825 0 
-158.647 25.6533 0 
-209.945 -103.701 0 
-202.546 -96.5708 0 
-144.664 -111.448 0 
-171.107 -127.763 0 
-191.443 -91.8714 0 
-203.34 -97.275 0 
-176.218 -109.042 0 
-195.936 -89.3001 0 
-184.275 -118.713 0 
-209.562 -108.708 0 
-165.811 -111.311 0 
-212.449 -62.7756 0 
-207.173 -98.4922 0 
-233.256 -113.273 0 
-186.951 -78.011 0 
-198.666 -89.8563 0 
-163.062 -116.884 0 
-159.521 -110.775 0 
-165.352 -142.11 0 
-181.073 -89.9116 0 
-143.299 -94.0305 0 
-159.341 -55.5181 0 
-209.824 -104.986 0 
-226.822 -100.817 0 
-174.388 -93.103 0 
-182.477 -107.507 0 
-175.696 -111.784 0 
-206.114 -100.811 0 
-209.423 -104.666 0 
-141.834 21.552 0 
-186.943 -107.183 0 
-239.402 -88.1199 0 
-221.292 -80.9267 0 
-213.477 -96.6804 0 
-169.644 -116.24 0 
-162.936 -136.307 0 
-194.975 -82.5833 0 
-193.367 -68.8397 0 
-207.937 -92.8324 0 
-177.349 -87.7954 0 
-155.72 -116.783 0 
-194.53 -120.927 0 
-195.643 -91.5323 0 
-180.77 -119.52 0 
-218.885 -93.4892 0 
-181.224 -118.882 0 
-159.184 -80.3681 0 
-214.301 -89.7996 0 
-148.223 -85.0663 0 
-188.101 -83.2536 0 
-159.781 -123.953 0 
-199.495 -113.34 0 
-159.374 -92.6736 0 
-162.948 -135.94 0 
-192.576 -96.7896 0 
-184.093 -106.738 0 
-173.847 -70.7126 0 
-151.331 -87.4789 0 
-184.356 -80.0203 0 
-188.184 -116.181 0 
-207.123 -109.995 0 
-164.85 -117.063 0 
-193.854 -116.472 0 
-177.522 -67.1038 0 
-188.339 -105.769 0 
-174.955 -96.3327 0 
-211.636 -88.636 0 
-183.896 -105.39 0 
-144.742 -121.507 0 
-156.302 -99.7339 0 
-201.995 -117.646 0 
-177.85 -97.3478 0 
-211.388 -78.0802 0 
-210.019 -82.5252 0 
-186.294 -76.1691 0 
-194.298 -53.3666 0 
-197.815 -70.3143 0 
-123.776 -72.031 0 
-186.808 -68.2239 0 
-182.061 -125.01 0 
-201.273 -104.443 0 
-167.854 -44.9332 0 
-219.878 -55.7555 0 
-234.456 -64.5165 0 
-126.352 39.077 0 
-153.553 -41.7926 0 
-217.259 -83.3073 0 
-156.862 -101.157 0 
-159.118 -61.2619 0 
-207.655 -53.1831 0 
-195.505 -61.7644 0 
-183.848 -130.364 0 
-190.369 -99.6978 0 
-221.098 -59.5492 0 
-164.404 -48.7008 0 
-210.965 -80.7679 0 
-192.853 -91.8382 0 
-219.202 -133.828 0 
-164.737 -102.702 0 
-164.268 -88.3194 0 
-189.343 -83.4452 0 
-173.692 -77.5127 0 
-188.755 -115.98 0 
-159.769 -91.715 0 
-196.509 -108.87 0 
-150.94 -99.4632 0 
-203.147 -218.718 0 
-179.559 -89.3142 0 
-169.798 -36.8767 0 
-223.389 -56.5566 0 
-158.193 -93.0432 0 
-214.547 -91.9999 0 
-178.205 -87.1486 0 
-183.372 -92.2667 0 
-179.847 -81.4173 0 
-183.317 -64.5091 0 
-205.271 -34.5521 0 
-168.41 -95.0169 0 
-182.556 -81.9268 0 
-195.59 -47.3074 0 
-210.174 -50.3201 0 
-217.866 -63.1008 0 
-205.957 -100.244 0 
-222.589 -85.5691 0 
-185.644 -87.5187 0 
-178.631 -79.2332 0 
-219.277 -76.4744 0 
-199.21 -199.986 0 
-226.146 -222.138 0 
-188.935 -81.3077 0 
-162.088 -53.1403 0 
-169.877 -51.2848 0 
-211.342 -70.0327 0 
-196.947 -120.794 0 
-156.018 -86.005 0 
-198.687 67.5217 0 
-170.472 -55.4401 0 
-196.639 -29.3224 0 
-171.773 -11.8884 0 
-180.893 -38.9953 0 
-193.271 -198.201 0 
-204.673 -50.2907 0 
-176.819 -49.4351 0 
-158.615 -34.9824 0 
-152.401 74.1425 0 
-221.251 -45.3019 0 
-155.654 -61.8976 0 
-174.546 -53.9461 0 
-205.436 -187.332 0 
-167.894 -45.3823 0 
-183.478 -57.7804 0 
-133.517 102.939 0 
-183.322 -21.7162 0 
-148.21 -67.5514 0 
-201.983 -46.6384 0 
-209.325 -231.03 0 
-178.857 -150.771 0 
-202.764 -175.625 0 
-198.397 -193.937 0 
-203.684 -177.663 0 
-217.658 -209.452 0 
-204.073 14.3257 0 
-177.752 -65.4679 0 
-205.604 -60.3278 0 
-200.026 -191.723 0 
-169.074 -202.814 0 
-187.936 -33.2631 0 
-181.272 -189.674 0 
-176.309 -64.9846 0 
-200.221 -44.2592 0 
-181.769 -48.9614 0 
-155.243 -56.2056 0 
-164.855 -183.738 0 
-176.09 -74.56 0 
-136.21 -195.451 0 
-180.18 -37.7101 0 
-179.043 -35.0237 0 
-199.589 -158.67 0 
-218.289 -214.717 0 
-169.053 -173.485 0 
-177.532 -200.342 0 
-201.127 -176.665 0 
-202.197 -188.799 0 
-227.675 -238.175 0 
-146.959 -16.5645 0 
-176.314 12.9786 0 
-196.036 -46.0629 0 
-201.319 -26.502 0 
-150.439 -11.5006 0 
-164.304 15.14 0 
-143.461 -180.588 0 
-159.194 -213.441 0 
-158.925 -4.57815 0 
-202.735 -214.625 0 
-188.957 -5.37721 0 
-247.927 -17.7369 0 
-182.696 -180.07 0 
-182.804 -29.936 0 
-148.029 -35.6809 0 
-153.191 -22.1612 0 
-172.006 22.3005 0 
-168.834 -20.8905 0 
-194.459 -35.3995 0 
-190.021 -170.045 0 
-219.707 -170.883 0 
-197.416 -139.562 0 
-182.636 -183.507 0 
-197.015 -37.8644 0 
-171.789 -174.953 0 
-167.38 -217.623 0 
-163.266 -7.60959 0 
-167.688 -173.856 0 
-206.816 -178.279 0 
-171.463 -39.2718 0 
-188.846 2.53281 0 
-147.672 38.4108 0 
-156.117 -200.512 0 
-160.882 44.087 0 
-135.492 -3.39393 0 
-154.599 -40.9552 0 
-215.74 3.27793 0 
-190.16 -185.248 0 
-170.333 4.1987 0 
-182.363 -172.373 0 
-186.79 -30.0668 0 
-137.746 -191.045 0 
-190.114 -175.513 0 
-208.904 -173.888 0 
-190.56 -197.969 0 
-176.823 -204.102 0 
-179.866 -174.894 0 
-208.495 -104.204 0 
-232.039 -172.949 0 
-212.473 -153.255 0 
-184.47 -165.783 0 
-196.089 -142.839 0 
-202.166 -148.088 0 
-228.499 -154.638 0 
-198.428 -176.507 0 
-163.51 -194.68 0 
-148.645 -198.329 0 
-132.05 -154.046 0 
-184.768 -158.974 0 
-180.067 -183.783 0 
-191.264 -199.454 0 
-133.78 -39.685 0 
-166.52 -161.116 0 
-220.072 -160.429 0 
-204.382 -184.45 0 
-175.265 -193.188 0 
-205.55 -163.597 0 
-163.921 7.81561 0 
-177.384 -173.078 0 
-180.34 -180.963 0 
-183.795 -172.229 0 
-173.199 -8.51089 0 
-159.167 1.3809 0 
-166.806 -195.556 0 
-185.675 -211.948 0 
-164.595 -23.0468 0 
-174.171 -194.314 0 
-198.376 -184.382 0 
-160.107 -141.755 0 
-172.769 -123.754 0 
-193.372 -172.068 0 
-169.521 -143.714 0 
-235.973 -181.574 0 
-166.711 -144.397 0 
-183.977 -160.101 0 
-204.613 -195.488 0 
-160.138 -179.923 0 
-134.453 6.39963 0 
-165.185 -162.763 0 
-174.262 -48.5676 0 
-186.5 -132.977 0 
-199.661 -135.887 0 
-219.105 -137.812 0 
-249.722 -187.835 0 
-183.69 -151.256 0 
-170.314 -175.643 0 
-181.308 -155.048 0 
-173.486 -127.928 0 
-171.444 -167.29 0 
-208.886 -173.173 0 
-183.468 -145.451 0 
-170.304 -140.507 0 
-176.684 -157.768 0 
-215.258 -152.545 0 
-195.076 -167.406 0 
-190.235 -166.385 0 
-170.544 -174.443 0 
-199.953 -164.299 0 
-174.856 -159.91 0 
-201.13 -163.318 0 
-187.188 -149.563 0 