<VTKFile type="UnstructuredGrid" version="0.1" byte_order="BigEndian">
  <UnstructuredGrid>
        <Piece NumberOfPoints="8000" NumberOfCells="0" Time= "0.46">      <Points>
        <DataArray name="Position" type="Float32"  NumberOfComponents= "3"  format="ascii">

33.6765 0.420209 0 
37.2328 18.6036 0 
39.9308 11.1553 0 
40.0107 15.7369 0 
42.1492 37.5287 0 
43.5205 5.42189 0 
43.2089 8.23816 0 
41.4713 12.2055 0 
42.5364 13.7629 0 
42.3969 21.8944 0 
42.6241 30.1949 0 
43.8591 3.93289 0 
45.8881 2.77292 0 
45.114 6.00068 0 
44.648 7.12646 0 
45.6947 8.97996 0 
45.6129 8.52737 0 
44.543 8.02208 0 
45.6973 13.923 0 
46.0094 13.2425 0 
46.1222 13.702 0 
45.8159 15.1423 0 
45.5504 15.8589 0 
44.1354 17.2096 0 
44.9036 22.047 0 
46.1045 21.5165 0 
45.5816 22.6921 0 
44.5089 23.5035 0 
44.3719 23.5878 0 
45.976 28.2338 0 
44.4962 29.791 0 
45.3772 32.5123 0 
44.139 32.974 0 
44.2739 32.6839 0 
44.3688 32.2043 0 
45.7207 34.5521 0 
45.2594 33.7746 0 
45.881 35.1929 0 
45.8135 36.6937 0 
46.3287 38.9689 0 
46.1814 1.29731 0 
46.6396 1.50522 0 
47.3203 0.226344 0 
48.8125 39.3584 0 
47.8355 39.7896 0 
47.699 1.85721 0 
47.4792 3.65127 0 
48.3822 5.82436 0 
46.8662 5.21615 0 
48.713 6.91914 0 
47.7308 6.72842 0 
48.1783 7.53508 0 
47.6588 9.51563 0 
46.2198 9.53848 0 
48.3416 11.0733 0 
47.967 10.1095 0 
47.6837 9.31841 0 
47.4222 12.0444 0 
47.9373 13.2098 0 
47.9497 12.4306 0 
48.1855 14.7041 0 
47.6674 16.9261 0 
47.7976 15.9449 0 
48.0972 17.0071 0 
47.6655 18.3481 0 
47.3777 19.4791 0 
46.6229 20.981 0 
46.1956 20.3245 0 
46.2924 23.9335 0 
48.296 24.0381 0 
47.1313 24.5233 0 
47.2618 25.3923 0 
47.9613 26.5686 0 
47.5605 26.3045 0 
46.6705 26.0993 0 
48.932 26.2746 0 
47.3414 27.7583 0 
47.3339 27.4844 0 
46.6519 28.9275 0 
48.1795 28.8489 0 
46.4526 30.7624 0 
48.4854 30.2576 0 
48.3396 33.6033 0 
48.5436 32.9661 0 
46.4958 36.0554 0 
48.4802 36.4349 0 
48.0659 35.2172 0 
48.111 39.8478 0 
47.7234 39.135 0 
46.6701 38.8197 0 
50.7869 0.200643 0 
49.5274 2.27264 0 
50.7287 0.914363 0 
50.3517 1.06801 0 
48.9641 1.1655 0 
50.3996 38.9306 0 
51.2505 0.737815 0 
50.1701 0.37994 0 
51.2366 3.55012 0 
50.9382 2.25352 0 
50.2395 3.44076 0 
50.7624 3.17885 0 
48.9056 2.88662 0 
49.935 4.38942 0 
50.1035 2.72189 0 
49.8141 2.65503 0 
50.1283 3.75799 0 
50.6678 5.34954 0 
50.9588 4.91813 0 
51.1634 5.66873 0 
50.9287 6.43584 0 
49.8365 6.41648 0 
50.6183 8.5704 0 
50.6417 7.27323 0 
50.2025 7.57792 0 
49.7834 8.96697 0 
50.5371 7.46386 0 
50.8755 8.74717 0 
49.717 6.68268 0 
49.1071 8.64461 0 
48.8496 7.62364 0 
50.5478 8.40292 0 
49.6677 6.82234 0 
49.0695 9.22758 0 
50.4079 9.6871 0 
49.3353 9.34004 0 
49.7674 9.66184 0 
50.0866 9.17565 0 
50.8198 10.8228 0 
50.4024 9.94396 0 
49.3951 10.4446 0 
50.2012 10.9708 0 
50.8211 10.1924 0 
48.7191 11.2665 0 
51.097 14.3017 0 
50.8168 14.1858 0 
50.0485 14.6654 0 
50.6926 12.1479 0 
49.1219 12.4488 0 
50.4662 12.0552 0 
50.6287 15.8424 0 
50.0561 15.8612 0 
50.8867 16.1751 0 
50.3647 15.5806 0 
49.3307 17.5657 0 
50.8534 20.0419 0 
50.7434 17.9018 0 
51.2096 18.0314 0 
49.9038 19.7534 0 
49.6646 19.7302 0 
49.7599 20.7797 0 
48.9416 21.8826 0 
49.7386 20.1032 0 
50.7352 21.0029 0 
50.4913 21.0213 0 
49.3006 23.7383 0 
51.0864 23.6794 0 
49.5208 24.5615 0 
48.9705 24.3257 0 
49.9424 23.5512 0 
50.6698 25.7655 0 
49.8405 26.6297 0 
48.695 24.7537 0 
50.6405 24.1906 0 
49.8432 25.293 0 
50.8228 24.6971 0 
49.2675 27.5848 0 
50.825 29.4928 0 
48.8398 30.5702 0 
49.3272 31.0572 0 
50.3612 30.3741 0 
51.2049 31.6264 0 
49.3514 30.5319 0 
49.6004 31.2074 0 
49.0552 33.0204 0 
49.1459 32.9764 0 
49.8933 33.8695 0 
51.0576 34.1758 0 
50.9241 32.647 0 
48.9823 36.5708 0 
50.0484 34.8837 0 
50.2875 34.6513 0 
50.761 36.5071 0 
51.0668 35.4099 0 
50.7495 37.1884 0 
50.4153 37.0445 0 
50.4185 34.7878 0 
48.7156 35.7939 0 
50.0796 35.5413 0 
48.9909 35.0743 0 
49.5948 38.2435 0 
50.0038 37.328 0 
49.0819 38.0068 0 
49.1504 37.9667 0 
51.4336 37.8223 0 
52.6067 0.907529 0 
53.2872 38.2046 0 
52.9862 0.481822 0 
51.337 0.750735 0 
53.4647 1.49171 0 
52.2176 2.91035 0 
53.6465 2.32607 0 
53.5905 3.91411 0 
52.6568 2.41291 0 
53.7453 2.64455 0 
53.2412 2.8699 0 
53.5967 3.89233 0 
53.3294 2.30213 0 
52.2781 2.30603 0 
53.5267 3.64074 0 
53.2771 2.72132 0 
51.5953 2.31613 0 
53.1475 4.41746 0 
51.5231 5.81027 0 
53.2354 6.23127 0 
51.314 5.3648 0 
53.5058 5.11261 0 
52.9672 5.90023 0 
53.1015 3.97428 0 
52.9838 6.19105 0 
53.0356 5.01222 0 
53.1517 5.86201 0 
52.8028 6.03161 0 
52.7025 7.03341 0 
53.0478 5.99376 0 
52.663 5.08912 0 
53.584 6.48714 0 
51.2257 9.14752 0 
51.2071 7.70679 0 
51.7555 7.54321 0 
51.0687 7.7294 0 
51.2319 6.6815 0 
53.3304 8.06224 0 
52.5369 9.33536 0 
53.3144 6.38998 0 
53.5049 6.73073 0 
52.0264 7.46538 0 
51.8647 8.52038 0 
53.685 10.5151 0 
53.1824 10.261 0 
53.2847 11.2292 0 
52.988 11.3944 0 
51.1946 11.381 0 
51.9933 9.51878 0 
53.5775 11.9375 0 
53.8156 10.1776 0 
53.0754 11 0 
52.5034 9.28481 0 
53.4982 10.3477 0 
52.489 11.2078 0 
53.3512 9.99588 0 
51.3419 12.4472 0 
52.0124 12.526 0 
52.1988 12.2636 0 
51.899 13.804 0 
51.1573 12.5257 0 
53.9167 14.1226 0 
53.0313 13.8475 0 
53.5413 13.4943 0 
53.5176 16.3992 0 
52.1446 14.4424 0 
53.6884 17.0741 0 
51.5608 15.796 0 
53.3105 16.7767 0 
52.6832 17.2213 0 
52.9022 15.252 0 
53.9077 16.276 0 
53.8076 15.2865 0 
51.3305 17.1768 0 
52.955 18.3805 0 
52.5001 18.3184 0 
53.2091 18.3845 0 
52.0105 18.2771 0 
53.7387 17.9767 0 
53.1926 17.6071 0 
51.9737 19.6774 0 
53.5536 19.8617 0 
51.5448 18.7278 0 
53.5871 19.0226 0 
52.3643 16.9716 0 
52.0692 17.87 0 
53.6063 18.9768 0 
52.77 21.7077 0 
53.1611 19.6152 0 
52.6536 20.4929 0 
53.5395 20.5897 0 
53.3581 21.6075 0 
51.4856 20.6358 0 
52.4595 19.4581 0 
51.3083 19.7491 0 
52.9597 21.9457 0 
52.5815 23.512 0 
52.3716 22.9668 0 
53.2392 22.2386 0 
51.8114 22.2367 0 
51.9907 23.2287 0 
52.6982 23.3221 0 
53.1066 23.4198 0 
51.9145 24.5596 0 
52.4321 25.0308 0 
52.1365 25.0549 0 
53.5037 26.2074 0 
51.6701 24.7689 0 
52.4033 26.0365 0 
52.5079 26.3386 0 
53.419 26.1193 0 
53.7737 28.5028 0 
53.6196 29.9648 0 
52.3423 27.031 0 
51.179 31.6976 0 
53.312 30.8745 0 
52.4179 29.9901 0 
52.0817 31.5135 0 
52.1214 31.3431 0 
52.0354 29.5487 0 
53.0304 29.7678 0 
51.4775 29.6779 0 
51.4476 30.4993 0 
52.8957 29.7309 0 
51.7186 31.4101 0 
51.6042 29.9274 0 
52.4953 31.2542 0 
53.042 29.9419 0 
52.393 30.8578 0 
52.3652 34.3976 0 
51.5709 32.748 0 
52.3489 31.6044 0 
52.8228 32.2007 0 
53.0049 33.0618 0 
52.3651 32.4941 0 
52.8739 33.4869 0 
53.4213 32.5925 0 
53.7115 33.8586 0 
53.7097 34.5705 0 
53.4919 35.5592 0 
52.9317 33.9635 0 
53.551 37.0308 0 
53.3375 35.855 0 
52.9726 36.3839 0 
53.4928 34.655 0 
52.8757 34.9986 0 
53.0565 37.6431 0 
53.6373 37.2883 0 
52.6692 37.7539 0 
52.6525 37.5889 0 
51.9882 37.2254 0 
52.716 37.4837 0 
52.9265 37.0381 0 
51.5097 37.5986 0 
53.2417 38.4024 0 
54.9657 0.905345 0 
55.6822 1.35188 0 
55.3901 0.89252 0 
54.7782 37.6507 0 
55.9644 1.24585 0 
53.8705 38.1554 0 
54.5456 38.7476 0 
54.2225 0.890584 0 
53.9507 1.09288 0 
56.2175 39.5176 0 
55.3132 2.47591 0 
55.3482 1.87825 0 
54.2498 1.7675 0 
55.7845 2.36039 0 
56.0362 3.89848 0 
55.0323 2.46263 0 
54.3937 3.34702 0 
54.3617 2.63289 0 
55.3855 3.79827 0 
56.0083 1.95248 0 
53.929 3.01165 0 
54.5059 2.67121 0 
55.5325 3.3684 0 
55.7661 2.78722 0 
54.7757 5.71537 0 
54.0523 5.21171 0 
55.735 4.39029 0 
55.8431 6.25326 0 
55.8621 5.26451 0 
54.1995 4.78951 0 
56.4356 6.1986 0 
55.3959 6.51195 0 
54.4365 6.30145 0 
54.4959 5.04842 0 
55.5737 6.52705 0 
54.6445 5.81029 0 
55.7422 5.96666 0 
55.3255 6.18744 0 
54.9155 5.77684 0 
54.8129 4.80142 0 
55.773 7.37279 0 
55.5249 6.84305 0 
53.8398 8.72658 0 
54.099 8.2112 0 
53.9245 8.02594 0 
54.7046 6.80782 0 
55.9348 9.59874 0 
55.5826 11.5428 0 
54.42 10.2773 0 
54.3408 10.2996 0 
55.5541 9.94003 0 
55.4271 12.0225 0 
53.7624 9.4077 0 
55.9718 10.9331 0 
54.3876 10.5758 0 
56.208 10.0816 0 
54.8823 10.4116 0 
54.8888 13.4201 0 
54.5562 12.2535 0 
54.916 12.8992 0 
54.7812 12.4398 0 
56.673 13.4973 0 
54.5103 12.9892 0 
55.7344 13.8841 0 
54.5803 12.9394 0 
56.0626 13.6557 0 
54.3923 11.9407 0 
55.4743 12.9597 0 
55.8271 11.8719 0 
55.0119 13.6753 0 
55.9986 15.13 0 
55.9089 15.9817 0 
56.1046 15.0778 0 
55.9296 16.5988 0 
54.2778 15.6816 0 
55.4337 17.0107 0 
56.4498 15.7632 0 
55.2266 15.7083 0 
55.529 16.065 0 
54.5188 14.9573 0 
54.5386 14.3566 0 
54.094 17.5864 0 
54.2582 17.662 0 
53.8569 17.4571 0 
55.1799 16.7668 0 
54.3138 18.5363 0 
55.1952 18.7022 0 
54.9566 18.8033 0 
55.0636 17.8833 0 
55.5482 18.6745 0 
55.0564 16.0637 0 
55.8291 19.1902 0 
56.2967 18.2644 0 
54.2686 18.9535 0 
55.4234 18.8668 0 
54.0545 18.6974 0 
55.2767 18.581 0 
54.7628 17.5354 0 
53.9996 16.9359 0 
56.1537 18.0002 0 
55.4087 17.409 0 
55.8987 19.1291 0 
56.1144 16.9423 0 
56.3904 17.4308 0 
54.7197 17.7563 0 
54.3288 19.6551 0 
55.8936 20.6762 0 
55.1523 21.5881 0 
55.9578 20.8818 0 
54.9186 20.5654 0 
55.6353 21.6911 0 
56.2563 20.2176 0 
54.7996 20.6755 0 
55.308 19.1812 0 
55.1677 21.5873 0 
54.4887 21.9996 0 
56.1982 21.7875 0 
55.0102 20.6329 0 
54.0318 21.5416 0 
54.3096 22.0511 0 
55.2928 20.5579 0 
56.1858 20.6783 0 
55.3381 20.6384 0 
55.259 20.2725 0 
55.1657 20.9091 0 
53.916 22.5785 0 
53.6902 23.6195 0 
54.7024 24.1074 0 
54.9287 24.1067 0 
56.1002 23.0599 0 
54.6865 23.4763 0 
54.8055 22.1718 0 
54.5827 23.0828 0 
56.0131 22.1133 0 
54.6079 24.0157 0 
55.478 23.0509 0 
54.2939 22.296 0 
55.4476 26.7049 0 
53.8204 26.2023 0 
54.3681 25.3843 0 
55.7399 26.2341 0 
54.1372 25.2363 0 
55.9506 25.7967 0 
54.1001 26.1533 0 
55.3466 24.3618 0 
56.2817 24.555 0 
55.9461 24.3794 0 
55.9304 25.5615 0 
53.9769 25.4592 0 
55.1323 26.5895 0 
56.0532 26.5931 0 
55.4894 24.8144 0 
55.7397 27.4217 0 
55.1189 29.4308 0 
56.0048 27.7064 0 
55.5451 29.0866 0 
55.3587 28.0267 0 
54.2421 28.9963 0 
55.9563 28.9243 0 
55.812 28.6324 0 
54.5725 29.4912 0 
54.0099 27.5617 0 
55.5251 27.0879 0 
54.8467 30.8052 0 
55.3376 30.9275 0 
54.2033 29.4825 0 
55.6648 30.891 0 
[...]
      <PointData Vectors="vector">
        <DataArray type="Float32" Name="Velocity" NumberOfComponents="3" format="ascii">

-247.14 -185.82 0 
-231.477 -103.832 0 
-217.521 -134.618 0 
-235.644 -128.29 0 
-289.161 -95.444 0 
-222.55 -80.1048 0 
-274.553 -143.539 0 
-278.137 -181.028 0 
-282.503 -116.024 0 
-259.941 -160.201 0 
-307.214 -136.997 0 
-269.879 -106.997 0 
-213.193 -122.68 0 
-234.295 -105.961 0 
-240.496 -79.7766 0 
-212.777 -16.1336 0 
-217.049 -89.521 0 
-278.908 -102.801 0 
-259.447 -201.631 0 
-204.113 -67.0264 0 
-268.882 -54.5052 0 
-218.168 31.8256 0 
-260.398 -190.749 0 
-271.261 -65.0372 0 
-240.76 167.588 0 
-242.719 -151.848 0 
-254.613 -168.4 0 
-299.588 -150.945 0 
-282.16 -145.089 0 
-298.917 -139.779 0 
-278.37 -146.409 0 
-261.606 -190.022 0 
-218.626 -130.94 0 
-232.425 -95.992 0 
-235.942 -131.495 0 
-263.002 -32.4239 0 
-295.866 -89.3118 0 
-233.219 -128.558 0 
-286.486 -127.954 0 
-263.907 -131.045 0 
-237.256 -91.938 0 
-269.533 -125.733 0 
-253.817 -248.023 0 
-270.701 -16.2468 0 
-271.624 -122.351 0 
-281.418 -72.5336 0 
-231.31 -63.8166 0 
-209.045 -86.6073 0 
-249.9 -46.7869 0 
-269.91 -82.7008 0 
-251.843 -83.7484 0 
-247.336 -48.7287 0 
-269.557 -65.0491 0 
-281.328 -52.1486 0 
-265.594 -189.178 0 
-238.639 -197.455 0 
-245.345 -67.6713 0 
-221.185 36.3997 0 
-230.592 -196.465 0 
-231.798 -176.842 0 
-262.72 -36.731 0 
-254.353 -229.688 0 
-266.184 -61.248 0 
-288.841 -31.2165 0 
-232.15 -135.476 0 
-248.972 -26.3282 0 
-227.978 -189.515 0 
-252.298 -27.1311 0 
-269.381 -40.7059 0 
-234.824 5.01173 0 
-237.009 -159.102 0 
-264.287 -138.034 0 
-260.23 -199.635 0 
-214.196 -182.968 0 
-311.639 -76.3062 0 
-176.026 69.9296 0 
-256.501 -188.262 0 
-240.794 -196.835 0 
-268.644 -172.856 0 
-246.976 -34.6821 0 
-192.421 -36.7518 0 
-209.77 -112.239 0 
-309.805 -151.829 0 
-275.096 -72.2407 0 
-240.391 -161.4 0 
-279.426 -52.822 0 
-194.914 -124.567 0 
-276.484 -53.0335 0 
-202.127 75.0531 0 
-217.427 -115.194 0 
-202.083 -125.971 0 
-258.59 -149.502 0 
-222.681 -86.9961 0 
-208.768 -116.517 0 
-234.94 -106.128 0 
-259.819 -125.217 0 
-241.676 -112.467 0 
-225.445 9.76901 0 
-258.019 -53.688 0 
-265.457 -64.5677 0 
-188.675 100.579 0 
-220.675 -90.724 0 
-207.498 -77.2727 0 
-207.816 -47.6415 0 
-260.928 36.254 0 
-213.909 -127.788 0 
-251.916 -123.491 0 
-235.543 -145.535 0 
-204.48 -74.1588 0 
-233.916 -83.8256 0 
-233.067 -91.7007 0 
-276.19 -218.404 0 
-258.874 -82.7172 0 
-265.444 -98.1588 0 
-242.765 -128.41 0 
-233.366 -93.9937 0 
-253.471 -197.336 0 
-263.147 -115.875 0 
-222.301 -192.95 0 
-294.734 -114.075 0 
-235.044 -91.0872 0 
-265.742 -192.695 0 
-227.497 -176.283 0 
-249.566 -43.1215 0 
-275.602 -76.0633 0 
-222.373 -62.456 0 
-291.11 -205.089 0 
-224.23 50.1592 0 
-290.417 -114.289 0 
-247.349 -195.283 0 
-220.323 -47.1782 0 
-227.005 -152.543 0 
-219.167 -196.182 0 
-260.715 -166.265 0 
-293.808 -80.0347 0 
-242.729 -102.599 0 
-256.843 -199.29 0 
-242.985 -67.4133 0 
-250.389 -192.005 0 
-224.004 -51.7218 0 
-282.575 -159.539 0 
-243.936 -214.397 0 
-232.272 -164.666 0 
-285.83 -64.3988 0 
-238.697 -136.539 0 
-266.342 -215.55 0 
-231.715 -139.296 0 
-260.402 -207.932 0 
-281.764 -125.452 0 
-265.919 -192.937 0 
-282.271 -183.778 0 
-321.739 -182.305 0 
-284.263 -162.439 0 
-284.091 -182.536 0 
-237.951 -64.1128 0 
-262.575 -99.5734 0 
-221.981 -178.107 0 
-217.843 -126.04 0 
-277.124 -116.309 0 
-299.056 -164.128 0 
-296.542 -168.27 0 
-250.729 -66.9242 0 
-321.065 -194.331 0 
-264.368 -193.141 0 
-247.117 -170.29 0 
-252.147 -178.411 0 
-255.75 -181.938 0 
-275.929 -62.9093 0 
-260.599 -74.2862 0 
-269.768 -152.226 0 
-277.099 -159.372 0 
-288.135 -175.847 0 
-211.887 -28.4808 0 
-263.549 -177.092 0 
-287.093 -179.016 0 
-258.883 -184.967 0 
-237.829 -127.152 0 
-276.382 -156.565 0 
-219.317 -148.067 0 
-275.852 -154.464 0 
-247.709 -110.941 0 
-256.693 -131.61 0 
-273.572 -153.371 0 
-262.104 -23.073 0 
-231.726 33.5891 0 
-252.962 -140.679 0 
-255.497 8.98132 0 
-246.533 -21.9431 0 
-235.28 -120.385 0 
-271.846 -121.043 0 
-216.478 -164.8 0 
-254.076 -3.69119 0 
-204.248 36.947 0 
-231.09 11.2633 0 
-237.977 -113.338 0 
-260.544 -125.075 0 
-241.094 -125.154 0 
-276.456 -152.81 0 
-248.389 -161.122 0 
-257.742 -155.748 0 
-313.496 -156.863 0 
-212.44 -128.844 0 
-226.041 -113.193 0 
-296.405 -134.604 0 
-254.679 -101.888 0 
-274.179 -252.736 0 
-232.467 -94.6511 0 
-289.717 -269.548 0 
-224.457 -110.375 0 
-235.631 -82.3355 0 
-236.431 -136.492 0 
-305.198 -177.187 0 
-263.906 -258.833 0 
-264.739 -70.8798 0 
-221.263 -127.665 0 
-237.596 -122.902 0 
-260.161 -184.716 0 
-210.93 -39.7209 0 
-306.69 -154.388 0 
-237.706 -70.0464 0 
-270.222 -133.474 0 
-271.917 -92.2285 0 
-290.328 -79.5706 0 
-224.928 -94.2105 0 
-248.067 -204.3 0 
-241.353 -42.3234 0 
-248.125 -87.9302 0 
-266.03 -103.535 0 
-227.317 10.6074 0 
-256.22 -97.0312 0 
-211.566 -99.6402 0 
-270.026 -228.569 0 
-246.535 -116.622 0 
-264.478 -163.637 0 
-251.311 -88.5213 0 
-229.121 -134.765 0 
-280.603 -240.52 0 
-220.911 -64.3908 0 
-224.491 -68.4831 0 
-247.003 -166.734 0 
-262.301 -198.348 0 
-195.566 -200.126 0 
-232.23 -164.387 0 
-243.528 -48.2232 0 
-214.209 -57.978 0 
-184.247 -80.2109 0 
-274.301 -167.889 0 
-267.32 -85.3426 0 
-256.378 -217.957 0 
-218.197 -192.969 0 
-198.767 -66.9039 0 
-211.365 -31.5417 0 
-184.476 -78.2829 0 
-275.597 -230.453 0 
-238.188 -73.2414 0 
-213.498 -168.266 0 
-241.569 -86.7235 0 
-261.397 -197.568 0 
-282.07 -219.744 0 
-238.805 -174.336 0 
-229.015 -207.385 0 
-273.731 -19.3925 0 
-311.257 -131.73 0 
-267.323 -190.967 0 
-276.526 -80.6841 0 
-256.705 -199.176 0 
-249.14 -201.453 0 
-229.299 12.4239 0 
-201.504 13.8955 0 
-247.431 -212.248 0 
-268.78 -214.525 0 
-239.353 -86.8577 0 
-254.708 -164.304 0 
-271.091 -224.719 0 
-232.294 -202.943 0 
-259.41 -171.023 0 
-235.044 -74.1935 0 
-236.142 -51.2582 0 
-227.206 -178.491 0 
-228.392 -170.157 0 
-283.878 -225.903 0 
-281.635 -228.974 0 
-273.804 -77.9231 0 
-290.308 -72.6913 0 
-262.765 -202.398 0 
-208.648 -153.168 0 
-243.321 -215.152 0 
-204.19 -204.826 0 
-269.513 -80.7041 0 
-253.824 -199.277 0 
-259.376 -79.0081 0 
-269.74 -46.0511 0 
-275.861 -161.455 0 
-192.664 -42.6086 0 
-270.956 -198.213 0 
-284.926 -166.542 0 
-278.078 -207.076 0 
-228.028 -167.216 0 
-220.993 -61.8058 0 
-275.286 -73.5896 0 
-248.531 -39.5734 0 
-268.356 -185.176 0 
-227.343 -151.977 0 
-293.636 -188.448 0 
-269.941 -147.65 0 
-258.853 -196.493 0 
-236.112 -21.4065 0 
-236.106 78.9532 0 
-269.728 -32.9875 0 
-237.776 -18.7049 0 
-260.633 -27.2446 0 
-294.089 -177.137 0 
-255.453 -176.174 0 
-246.556 -72.872 0 
-213.285 -189.993 0 
-242.012 -185.056 0 
-196.601 22.1101 0 
-213.184 -51.2192 0 
-258.737 -167.208 0 
-266.334 -166.94 0 
-238.709 -138.933 0 
-238.655 -58.7069 0 
-266.263 -129.766 0 
-222.875 -144.357 0 
-255.193 -186.323 0 
-239.56 -151.005 0 
-248.395 -57.8479 0 
-204.04 -130.794 0 
-206.058 60.6241 0 
-247.814 10.0114 0 
-162.726 -122.838 0 
-289.042 -200.115 0 
-207.709 0.608324 0 
-238.513 -189.37 0 
-288.647 -229.628 0 
-279.842 -153.869 0 
-219.675 -153.567 0 
-279.227 -158.455 0 
-253.695 -7.27151 0 
-252.369 -73.7981 0 
-246.932 -60.5536 0 
-297.636 -131.839 0 
-200.949 -152.981 0 
-195.165 -127.947 0 
-270.476 -155.14 0 
-242.273 -156.441 0 
-220.333 -94.997 0 
-204.146 70.2838 0 
-215.243 -131.724 0 
-278.141 -125.039 0 
-231.424 -107.721 0 
-234.017 -146.805 0 
-272.881 -151.88 0 
-214.096 -146.851 0 
-290.855 -123.879 0 
-265.904 -115.731 0 
-270.914 -126.789 0 
-243.69 -23.8666 0 
-252.558 -125.816 0 
-241.526 -10.7878 0 
-249.575 -97.0396 0 
-215.752 42.5233 0 
-228.874 -133.387 0 
-199 -48.7944 0 
-238.844 -133.713 0 
-272.743 -138.323 0 
-314.266 -157.631 0 
-251.042 -105.206 0 
-217.989 -128.461 0 
-264.508 -100.414 0 
-227.132 -27.0423 0 
-221.986 37.003 0 
-236.627 83.0394 0 
-210.094 -138.441 0 
-259.247 -127.913 0 
-256.429 -103.003 0 
-232.73 -217.299 0 
-301.906 -223.136 0 
-205.753 -85.8424 0 
-200.315 -100.271 0 
-307.067 -136.665 0 
-249.848 -93.2529 0 
-300.89 -240.521 0 
-220.979 -232.949 0 
-244.164 -217.694 0 
-228.676 -74.9065 0 
-230.596 -96.1114 0 
-148.532 88.9395 0 
-249.627 -115.711 0 
-221.37 10.099 0 
-252.11 -127.366 0 
-198.933 -85.0834 0 
-219.501 -83.9765 0 
-284.655 -73.7789 0 
-288.902 -104.605 0 
-221.202 -84.0117 0 
-250.901 -100.01 0 
-214.293 -47.4249 0 
-264.121 -115.618 0 
-207.802 -185.318 0 
-244.484 -191.438 0 
-222.605 -179.172 0 
-219.636 -106.393 0 
-236.31 -85.4489 0 
-279.656 -175.764 0 
-284.517 -223.56 0 
-231.869 -234.34 0 
-267.697 -62.0072 0 
-214.476 -114.109 0 
-233.23 -14.7289 0 
-202.248 -82.8301 0 
-240.228 -98.9018 0 
-202.246 -211.37 0 
-253.371 -145.428 0 
-268.778 -183.404 0 
-243.915 -193.583 0 
-262.124 -166.629 0 
-217.367 -180.629 0 
-258.015 -202.454 0 
-232.159 -113.407 0 
-177.384 -87.076 0 
-217.117 -208.525 0 
-248.546 -12.6993 0 
-279.463 -186.687 0 
-241.811 -74.2177 0 
-241.54 -188.843 0 
-246.262 -193.408 0 
-289.037 -195.715 0 
-310.76 -202.67 0 
-239.145 37.4082 0 
-212.518 -46.5812 0 
-260.933 -219.107 0 
-238.31 -228.068 0 
-265.861 -244.269 0 
-265.553 -213.447 0 
-242.249 -202.052 0 
-262.124 -190.629 0 
-300.075 -148.754 0 
-251.618 -158.519 0 
-255.976 -164.311 0 
-219.939 -231.486 0 
-236.167 -93.0407 0 
-279.859 -191.323 0 
-259.534 -139.005 0 
-269.841 -75.694 0 
-269.638 -187.673 0 
-268.853 -141.407 0 
-285.703 -208.207 0 
-217.937 -80.9956 0 
-180.943 -172.667 0 
-211.278 -155.113 0 
-246.773 -229.788 0 
-202.962 -94.6809 0 
-235.952 -67.5491 0 
-250.307 -203.107 0 
-268.732 -155.477 0 
-246.764 -83.6525 0 
-289.954 -96.3667 0 
-197.996 -77.2745 0 
-259.766 -155.4 0 
-258.677 -180.7 0 
-258.653 -65.2806 0 
-249.951 -224.166 0 
-256.802 -209.947 0 
-250.369 -227.313 0 
-281.524 -202.345 0 
-279.575 -179.419 0 
-251.098 -186.91 0 
-228.065 -180.768 0 
-257.931 -216.944 0 
-203.104 -78.3632 0 
-246.622 -174.369 0 
-243.43 -139.741 0 
-256.405 -189.77 0 
-198.925 -185.744 0 
-262.142 -71.1419 0 
-258.139 -195.88 0 
-265.08 -197.926 0 
-221.284 -180.761 0 
-252.014 -190.836 0 
-240.988 -101.377 0 
-283.708 -196.556 0 
-241.916 -162.313 0 
-235.397 -210.673 0 
-249.379 -204.966 0 
-216.214 -132.617 0 
-255.159 -218.836 0 
-177.133 -164.452 0 
-215.266 -206.44 0 
-276.129 -185.224 0 
-201.004 64.434 0 
-269.391 -165.543 0 
-233.684 -154.186 0 
-260.95 -135.264 0 
-214.536 -73.4834 0 
-221.745 -154.339 0 
-174.455 58.6471 0 
-275 -175.425 0 
-284.247 -165.656 0 
-224.222 -51.683 0 
-246.554 -22.4914 0 
-139.109 61.6183 0 
-183.235 52.2235 0 
-231.232 -32.2835 0 
-271.718 -155.073 0 
-242.486 -153.929 0 
-237.137 -36.0105 0 
-270.507 -138.964 0 
-270.9 -145.239 0 
-242.989 -15.459 0 
-293.621 -15.744 0 
-236.889 -128.711 0 
-289.516 -40.9588 0 
-255.047 -306.095 0 
-265.278 -146.257 0 
-272.369 -34.9374 0 
-274.357 0.830067 0 
-285.589 -257.92 0 
-188.205 -137.695 0 
-261.901 -10.6962 0 
-195.788 -141.5 0 
-256.687 -159.307 0 
-253.544 -152.916 0 
-267.644 -171.875 0 
-198.731 -0.0853991 0 
-247.937 -162.695 0 
-205.333 -138.806 0 
-233.461 -239.607 0 
-257.947 -101.947 0 
-228.187 -177.738 0 
-276.215 -46.9517 0 
-265.676 -142.944 0 
-238.145 -7.56536 0 
-244.032 -76.4658 0 
-270.252 -165.908 0 
-265.141 -173.452 0 
-245.627 -122.255 0 
-231.446 -166.829 0 
-259.156 -127.306 0 
-215.604 46.6726 0 
-246.667 -22.8108 0 
-245.749 -22.5684 0 
-248.05 -146.861 0 
-261.658 -133.662 0 
-256.484 -163.357 0 
-239.145 -178.385 0 
-222.639 -88.3279 0 
-272.982 -295.961 0 
-295.964 -138.894 0 
-289.16 -154.46 0 
-201.879 -131.499 0 
-214.625 -29.4494 0 
-195.237 -14.1634 0 
-264.381 -151.705 0 
-255.812 -150.167 0 
-197.84 11.6855 0 
-231.185 -186.118 0 
-217.316 -140.981 0 
-264.322 -173.151 0 
-257.285 -147.93 0 
-233.031 0.96276 0 
-230.579 -111.714 0 
-259.991 -141.329 0 
-266.867 -122.025 0 
-266.058 -226.21 0 
-256.281 -164.067 0 
-250.702 -267.64 0 
-270.847 -231.698 0 
-231.322 -144.362 0 
-220.344 -139.258 0 
-255.801 -132.781 0 
-180.984 -164.062 0 
-228.629 -145.308 0 
-257.629 -130.752 0 
-210.526 -143.068 0 
-278.899 -125.978 0 
-221.073 -225.654 0 
-249.744 -234.613 0 
-194.521 -115.334 0 
-280.323 -228.967 0 
-267.037 -147.678 0 
-199.753 -72.0389 0 
-142.675 103.201 0 
-271.481 -154.073 0 
-204.646 -126.555 0 
-261.96 -101.459 0 
-264.109 -130.27 0 
-268.598 -250.907 0 
-248.983 -190.545 0 
-263.362 -133.469 0 
-244.732 -8.61752 0 
-247.05 -222.185 0 
-264.33 -136.398 0 
-236.278 -95.4628 0 
-223.798 -100.05 0 
-274.209 -118.512 0 
-211.187 5.71727 0 
-189.41 -26.4731 0 
-208.831 -96.8848 0 
-264.699 -89.9016 0 
-201.088 -19.6863 0 
-199.724 -116.419 0 
-249.552 -96.6373 0 
-223.49 -212.933 0 
-279.804 -135.835 0 
-299.274 -126.35 0 
-223.465 -106.877 0 
-239.096 -143.191 0 
-194.848 -92.6767 0 
-225.686 -106.344 0 
-233.283 -38.6226 0 
-234.02 -140.069 0 
-246.5 -200.055 0 
-235.264 103.845 0 
-234.904 -208.154 0 
-179.791 87.0688 0 
-205.301 115.466 0 
-256.192 -91.7967 0 
-208.94 -116.346 0 
-244.146 -202.573 0 
-262.483 -190.116 0 
-269.011 -256.534 0 
-258.33 -88.9263 0 
-280.287 -83.986 0 
-280.552 -67.3697 0 
-202.004 -228.094 0 
-235.665 -40.9151 0 
-253.007 -196.845 0 
-265.054 -96.6758 0 
-247.7 -212.336 0 
-170.558 -133.907 0 
-220.392 -228.745 0 
-218.345 -250.888 0 
-232.48 -225.799 0 
-243.527 -63.9557 0 
-271.703 -66.8197 0 
-262.799 -51.6903 0 
-253.102 -242.849 0 
-205.955 -29.549 0 
-286.25 -198.371 0 
-200.622 -210.573 0 
-263.725 -98.8165 0 
-243.899 -212.739 0 
-230.122 -97.3685 0 
-228.615 -119.209 0 
-255.158 -205.131 0 
-259.388 -90.358 0 
-235.597 -77.388 0 
-258.529 -208.677 0 
-250.554 -227.121 0 
-260.357 -198.578 0 
-282.39 -98.8803 0 
-217.278 -88.3823 0 
-189.447 -60.3221 0 
-225.774 -220.966 0 
-211.146 26.4006 0 
-182.637 -103.624 0 
-247.244 -42.1698 0 
-215.239 -81.1642 0 
-250.057 -191.4 0 
-242.776 -200.41 0 
-230.707 -162.889 0 
-261.041 -167.538 0 
-288.6 -186.715 0 
-227.564 -192.904 0 
-230.01 -88.0191 0 
-212.509 -138.267 0 
-180.337 -66.7082 0 
-244.309 -105.742 0 
-276.472 -225.431 0 
-298.145 -182.386 0 
-197.893 -57.8113 0 
-217.278 -87.8248 0 
-242.216 -199.087 0 
-220.144 -166.143 0 
-238.655 -193.906 0 
-229.155 -133.531 0 
-279.4 -141.842 0 
-214.47 -72.6665 0 
-232.62 -95.8676 0 
-245.088 -61.4831 0 
-179.291 -178.688 0 
-269.103 -113.501 0 
-235.828 -176.495 0 
-234.488 -220.797 0 
-264.632 -162.332 0 
-277.583 -192.407 0 
-287.241 -190.251 0 
-261.527 -164.416 0 
-287.871 -95.6221 0 
-235.696 -94.4986 0 
-225.278 -169.37 0 
-278.933 -174.2 0 
-238.435 -88.8716 0 
-278.394 -93.6419 0 
-240.609 -171.695 0 
-262.208 -94.3262 0 
-248.485 -173.464 0 
-232.663 -65.843 0 
-233.118 -128.358 0 
-257.811 -178.512 0 
-218.58 -200.146 0 
-254.585 -179.201 0 
-242.335 -171.543 0 
-217.373 -199.308 0 
-173.555 -74.0226 0 
-217.151 -75.9276 0 
-259.548 -91.4022 0 
-190.687 -160.467 0 
-242.48 -80.8011 0 
-274.512 -163.774 0 
-234.999 -188.66 0 
-210.595 -42.0812 0 
-237.226 -66.5692 0 
-249.412 -59.9593 0 
-245.327 -214.353 0 
-244.342 -112.427 0 
-219.548 -71.4228 0 
-247.625 -175.357 0 
-262.703 -163.145 0 
-252.944 -176.411 0 
-242.573 -167.087 0 
-278.573 -153.656 0 
-207.767 -200.841 0 
-203.786 -194.554 0 
-213.326 -113.777 0 
-247.357 -65.0378 0 
-250.111 -174.53 0 
-255.246 -239.63 0 
-227.183 -177.273 0 
-232.958 70.3232 0 
-207.475 51.3018 0 
-233.518 -193.86 0 
-269.269 -56.7403 0 
-214.876 -159.695 0 
-231.521 -163.911 0 
-246.465 -83.9346 0 
-257.798 -158.02 0 
-252.28 -37.4144 0 
-216.828 -196.118 0 
-282.622 -205.903 0 
-258.587 -179.752 0 
-226.674 -164.318 0 
-280.071 -167.56 0 
-282.453 -166.308 0 
-239.466 -161.826 0 
-213.477 -144.187 0 
-227.235 -142.447 0 
-291.682 -177.988 0 
-248.009 -124.472 0 
-264.242 -178.327 0 
-219.328 -167.16 0 
-213.115 -65.6639 0 
-226.266 -159.592 0 
-228.853 -153.682 0 
-213.61 -164.789 0 
-277.068 -164.711 0 
-276.457 -158.809 0 
-261.508 -210.055 0 
-242.178 -186.439 0 
-265.683 -144.549 0 
-256.308 -183.497 0 
-239.532 -182.191 0 
-258.785 -178.775 0 
-266.051 -152.99 0 
-217.84 -169.875 0 
-239.252 -158.084 0 
-276.832 -161.017 0 
-237.025 -200.053 0 
-241.399 -143.468 0 
-243.449 -15.5299 0 
-246.996 -135.833 0 
-265.849 -162.971 0 
-269.507 -183.087 0 
-256.803 -157.86 0 
-231.749 -175.237 0 
-255.931 -34.9232 0 
-200.578 -35.8654 0 
-247.179 -181.819 0 
-210.153 -37.0768 0 
-202.082 7.13685 0 
-224.484 -139.459 0 
-257.484 -143.315 0 
-200.259 -143.191 0 
-232.699 -51.1399 0 
-228.05 -263.61 0 
-255.483 -132.553 0 
-221.514 7.351 0 
-247.291 -149.58 0 
-247.111 -110.421 0 
-233.385 -164.674 0 
-274.745 -125.648 0 
-316.339 -175.217 0 
-186.872 -168.734 0 
-277.206 -145.648 0 
-198.251 -46.4698 0 
-293.658 -145.231 0 
-267.102 -142.623 0 
-170.666 64.0121 0 
-231.957 -210.665 0 
-273.462 -151.656 0 
-193.036 -149.685 0 
-200.553 -171.231 0 
-203.514 -176.518 0 
-165.23 64.0698 0 
-296.229 -203.573 0 
-214.684 -115.656 0 
-207.627 -34.9355 0 
-231.143 -147.739 0 
-193.638 -145.559 0 
-207.73 -164.056 0 
-269.453 -146.465 0 
-276.31 -170.536 0 
-237.702 -159.236 0 
-190.692 -179.941 0 
-237.284 -244.576 0 
-269.248 -156.664 0 
-212.101 -166.616 0 
-250.341 -143.522 0 
-251.633 -164.278 0 
-313.475 -154.44 0 
-229.723 -176.899 0 
-252.097 -134.052 0 
-203.684 -43.5064 0 
-265.632 -142.689 0 
-305.89 -176.297 0 
-257.374 -24.8888 0 
-256.519 -117.687 0 
-278.869 -200.223 0 
-260.669 -163.517 0 
-249.314 -179.034 0 
-218.958 -182.752 0 
-244.83 -258.426 0 
-234.622 -173.287 0 
-260.253 -239.4 0 
-260.689 -175.963 0 
-217.761 -246.053 0 
-176.987 -49.3872 0 
-207.259 -19.6129 0 
-247.265 -170.023 0 
-215.832 -155.37 0 
-245.118 -172.831 0 
-210.867 -21.1447 0 
-272.581 -163.13 0 
-246.825 -131.761 0 
-179.398 81.4529 0 
-244.037 -155.776 0 
-283.329 23.2221 0 
-220.963 -125.294 0 
-249.179 -135.197 0 
-267.426 -144.497 0 
-204.741 -133.1 0 
-215.887 -240.309 0 
-232.098 -174.195 0 
-182.052 -127.573 0 
-228.775 -216.482 0 
-229.248 -115.341 0 
-233.128 -128.166 0 
-241.645 -135.766 0 
-239.125 -180.301 0 
-232.472 -124.441 0 
-222.62 -238.157 0 
-251.011 -255.952 0 
-205.415 -246.93 0 
-259.414 -160.886 0 
-283.213 -136.876 0 
-242.847 -126.79 0 
-228.742 -103.421 0 
-265.176 -111.062 0 
-251.663 -226.994 0 
-252.124 -209.965 0 
-220.457 -160.984 0 
-216.5 -130.706 0 
-281.959 -234.835 0 
-234.281 -235.65 0 
-274.49 -139.72 0 
-210.146 -256.34 0 
-211.963 -21.4195 0 
-186.197 -110.239 0 
-262.009 -145.948 0 
-220.636 -84.1197 0 
-240.16 -252.649 0 
-270.209 -238.064 0 
-262.25 -132.854 0 
-254.792 -24.1604 0 
-208.929 -46.9805 0 
-223.932 -135.654 0 
-210.589 9.30308 0 
-240.066 -193.622 0 
-209.034 -119.71 0 
-226.385 -221.379 0 
-248.561 -98.7282 0 
-205.721 -230.009 0 
-234.987 -119.251 0 
-252.655 -168.215 0 
-235.542 -133.621 0 
-276.954 -242.072 0 
-281.146 -228.59 0 
-250.557 -117.652 0 
-188.557 -185.055 0 
-248.933 -99.1117 0 
-225.857 -114.069 0 
-279.542 -255.705 0 
-271.682 -172.645 0 
-245.583 -99.0003 0 
-251.562 -11.7618 0 
-281.516 -227.364 0 
-238.72 -17.0526 0 
-236.02 -214.321 0 
-231.301 -80.5915 0 
-277.674 -87.5692 0 
-218.432 -72.5374 0 
-220.88 -105.999 0 
-221.301 -76.7539 0 
-223.545 -118.106 0 
-267.698 -218.527 0 
-267.668 -198.96 0 
-254.739 -216.474 0 
-232.113 -139.472 0 
-243.61 -197.445 0 
-225.385 -69.7261 0 
-269.406 -132.342 0 
-279.867 -224.506 0 
-216.771 -96.5956 0 
-222.72 -80.9956 0 
-191.287 106.417 0 
-236.884 -100.054 0 
-253.135 -101.343 0 
-219.336 -114.636 0 
-218.396 -144.827 0 
-220.924 -228.315 0 
-285.432 -89.4017 0 
-213.591 -119.961 0 
-247.512 -213.53 0 
-266.673 -91.9051 0 
-200.918 -230.28 0 
-284.757 -216.705 0 
-187.596 -74.2558 0 
-224.642 -113.558 0 
-198.505 -112.856 0 
-196.489 -54.5446 0 
-219.165 -57.0115 0 
-192.01 -69.617 0 
-212.554 20.6234 0 
-246.149 -245.263 0 
-202.935 -102.108 0 
-281.373 -226.235 0 
-274.094 -231.393 0 
-249.651 -91.9929 0 
-260.662 -207.631 0 
-220.913 -190.07 0 
-252.513 27.3636 0 
-284.613 -192.393 0 
-238.413 -62.0425 0 
-259.408 -129.671 0 
-179.21 -132.919 0 
-266.689 -45.2942 0 
-247.189 -226.462 0 
-252.487 -207.198 0 