<VTKFile type="UnstructuredGrid" version="0.1" byte_order="BigEndian">
  <UnstructuredGrid>
        <Piece NumberOfPoints="8000" NumberOfCells="0" Time= "0.255">      <Points>
        <DataArray name="Position" type="Float32"  NumberOfComponents= "3"  format="ascii">

85.4488 39.293 0 
84.5827 38.8268 0 
85.9404 0.361738 0 
85.8431 2.30388 0 
85.488 4.38606 0 
85.4591 17.1352 0 
86.1022 25.6294 0 
85.6305 33.7291 0 
84.2805 38.4387 0 
87.4452 1.30445 0 
86.9395 3.93857 0 
88.4075 3.8631 0 
88.8301 3.27444 0 
87.4638 4.40108 0 
87.6759 4.84194 0 
88.6216 5.97663 0 
88.9936 7.27814 0 
88.1338 8.01146 0 
89.0667 17.3626 0 
88.4356 17.8065 0 
89.0824 20.6501 0 
88.5098 24.5895 0 
88.9183 26.1031 0 
86.7258 25.8166 0 
89.0278 28.1998 0 
88.9719 34.8339 0 
89.0941 36.9989 0 
88.6989 37.7402 0 
89.0931 35.4522 0 
87.2044 37.4696 0 
88.5767 37.9794 0 
88.0309 38.3198 0 
88.0124 38.2469 0 
90.6577 38.4131 0 
89.9208 0.341527 0 
90.623 1.4464 0 
90.0375 38.9145 0 
90.1401 0.572269 0 
90.779 39.1826 0 
91.7049 2.66668 0 
91.6722 1.61221 0 
90.8472 2.9685 0 
91.4194 3.50325 0 
91.2515 2.50537 0 
90.7393 3.38437 0 
90.2699 3.158 0 
91.1247 3.17066 0 
91.0443 2.81681 0 
91.1146 4.41383 0 
89.5469 2.58862 0 
90.5218 6.53609 0 
90.2066 6.18042 0 
89.7659 5.575 0 
91.4189 7.80732 0 
90.8169 8.86149 0 
89.6957 8.11319 0 
91.3197 12.0942 0 
90.4376 11.646 0 
91.011 12.589 0 
91.0456 16.0992 0 
91.0148 17.1928 0 
90.4963 19.4766 0 
91.4302 17.683 0 
90.4029 18.9466 0 
91.2531 21.3089 0 
91.4962 20.1051 0 
89.9627 23.4955 0 
91.7762 25.0572 0 
91.2242 25.2032 0 
90.206 25.0422 0 
91.1346 29.9814 0 
91.6136 28.0658 0 
90.7828 27.867 0 
90.5459 31.0742 0 
90.8648 30.1664 0 
90.1327 32.8413 0 
91.059 33.2526 0 
90.6928 32.2669 0 
89.4535 33.2436 0 
90.3065 37.4972 0 
90.4485 37.5595 0 
89.7925 37.8374 0 
91.1709 37.4645 0 
89.1088 38.3154 0 
91.4648 38.5724 0 
90.0484 38.5503 0 
90.6244 39.5274 0 
89.3826 37.6389 0 
91.8907 38.2073 0 
94.034 0.652682 0 
93.5065 0.595154 0 
91.969 1.32109 0 
93.4006 38.9746 0 
92.6292 0.465569 0 
92.3782 1.68671 0 
93.5862 1.11518 0 
93.6871 0.258224 0 
91.622 37.7583 0 
92.9337 1.49744 0 
92.9425 2.16885 0 
93.7742 3.79009 0 
92.4599 2.25378 0 
93.3547 2.58431 0 
92.1635 3.60606 0 
92.111 2.17816 0 
93.5004 3.76433 0 
92.4332 3.01536 0 
92.1517 2.11371 0 
92.2475 2.24218 0 
93.7953 4.35181 0 
94.1465 3.59187 0 
91.7172 6.8635 0 
93.5132 5.27669 0 
93.3609 6.17545 0 
93.58 4.60936 0 
93.2022 6.0725 0 
92.087 6.2114 0 
94.0636 6.87618 0 
92.8069 5.42511 0 
94.1542 5.10045 0 
93.2142 5.1843 0 
94.0246 9.32109 0 
93.2288 9.35982 0 
93.4095 9.16317 0 
94.0041 8.25418 0 
93.9185 9.38935 0 
93.5465 9.25002 0 
92.1952 8.49757 0 
93.6734 8.96438 0 
92.4911 7.85316 0 
92.8808 8.85685 0 
94.2843 9.42711 0 
91.6876 9.6564 0 
93.8188 7.69337 0 
93.9688 12.0556 0 
92.9455 11.062 0 
93.3636 11.3712 0 
93.999 9.90983 0 
93.7672 10.8089 0 
93.5353 9.83443 0 
93.5814 10.0343 0 
93.1545 10.6048 0 
92.6645 11.3862 0 
93.5851 13.6668 0 
92.5952 14.2468 0 
92.6869 14.6376 0 
91.9767 13.8139 0 
94.3575 12.4206 0 
93.246 13.5584 0 
92.91 12.7536 0 
93.5745 13.5187 0 
93.796 14.7728 0 
92.5958 17.0683 0 
94.2308 16.1324 0 
92.5381 16.1177 0 
94.1987 16.1801 0 
93.4542 15.3389 0 
93.5785 16.4728 0 
94.0611 18.837 0 
93.4033 17.7104 0 
93.2292 19.3219 0 
93.4598 19.2783 0 
92.16 21.698 0 
93.8903 22.1393 0 
94.2618 20.2844 0 
91.9294 23.8833 0 
92.7439 24.117 0 
94.212 23.2182 0 
93.6923 25.1815 0 
93.6672 23.5886 0 
93.0713 27.0317 0 
93.2421 27.4102 0 
93.1837 25.4536 0 
93.6195 25.937 0 
93.2178 26.2026 0 
91.9888 29.207 0 
93.787 30.0172 0 
93.9684 29.334 0 
92.1578 28.3465 0 
93.5394 28.2013 0 
93.1984 30.2455 0 
93.9879 30.6348 0 
91.7449 30.1813 0 
93.3238 31.8572 0 
93.9877 31.9248 0 
93.5401 29.7564 0 
92.6968 31.3315 0 
93.598 32.0517 0 
93.823 34.1139 0 
94.0819 33.3102 0 
93.0862 33.871 0 
93.731 33.2046 0 
92.1283 33.1718 0 
92.8581 33.5139 0 
92.8775 33.47 0 
92.0352 37.0286 0 
92.2126 34.9154 0 
92.0732 36.1135 0 
92.0538 35.818 0 
94.0237 35.1878 0 
94.2211 37.734 0 
92.8364 35.8839 0 
92.4987 35.2112 0 
93.8556 34.8333 0 
92.9451 38.9051 0 
92.7323 1.14909 0 
92.8663 38.1478 0 
92.704 38.5031 0 
93.6097 38.1022 0 
92.0847 37.0915 0 
92.9638 37.4014 0 
93.8543 38.8522 0 
94.7993 1.1596 0 
94.1755 0.833413 0 
95.9227 0.417287 0 
95.6537 1.33366 0 
95.2295 1.36289 0 
94.5711 0.852959 0 
95.732 1.00369 0 
95.2345 2.52418 0 
95.6415 2.83509 0 
95.1656 2.11198 0 
95.3556 1.15845 0 
95.8261 1.53746 0 
94.6902 1.37804 0 
96.4487 0.520877 0 
95.6938 1.12197 0 
96.7743 0.0240529 0 
94.665 0.755996 0 
95.3301 1.45564 0 
96.4341 37.7233 0 
95.5613 1.10324 0 
96.0071 1.93667 0 
95.0465 1.93574 0 
95.7992 0.23064 0 
94.6883 1.89631 0 
94.422 39.3381 0 
95.6485 2.4037 0 
95.1296 3.28169 0 
96.8063 3.05234 0 
96.4491 2.6013 0 
94.5623 4.09037 0 
95.3205 3.14821 0 
96.626 2.32322 0 
96.4356 4.25063 0 
95.0303 3.87002 0 
94.9216 3.40293 0 
94.7753 3.3692 0 
94.652 3.1123 0 
94.9821 3.52633 0 
96.0862 4.14783 0 
94.6446 3.49565 0 
94.4863 4.51466 0 
95.0397 4.09469 0 
94.2049 2.6867 0 
95.7481 4.3875 0 
95.1373 3.76769 0 
95.1771 6.81036 0 
95.0882 6.47548 0 
96.3211 5.65926 0 
94.3693 5.17575 0 
95.2384 5.61346 0 
94.5486 6.38655 0 
96.7707 5.23352 0 
94.4398 5.09101 0 
95.611 4.85581 0 
95.2132 7.11717 0 
96.3834 5.93713 0 
96.6612 5.82403 0 
95.5803 5.81354 0 
94.9243 5.57708 0 
96.5855 5.03982 0 
94.7125 5.94123 0 
96.0375 6.57799 0 
96.6046 9.32855 0 
96.7136 9.3373 0 
95.1481 9.14187 0 
94.6053 7.3579 0 
96.0079 7.74892 0 
95.4922 9.79853 0 
95.4993 8.12014 0 
95.4166 7.1188 0 
95.6078 9.27899 0 
95.5985 7.84715 0 
96.1625 9.44848 0 
96.1946 8.12673 0 
96.8121 7.69719 0 
96.1697 8.79773 0 
95.2734 9.23849 0 
96.0255 8.24432 0 
95.3044 9.52873 0 
95.8771 8.60407 0 
96.4375 9.06516 0 
95.4613 7.3303 0 
96.5825 8.72083 0 
94.5958 8.97039 0 
94.8204 7.86309 0 
96.4364 8.20095 0 
94.658 7.5532 0 
95.4981 7.95616 0 
95.6334 10.1702 0 
96.3557 10.9622 0 
96.2386 11.2339 0 
94.2915 12.0174 0 
95.7275 9.86753 0 
96.1954 10.1037 0 
96.4086 10.5049 0 
96.0169 11.4668 0 
94.9512 11.5649 0 
95.2731 11.2637 0 
94.3241 10.7494 0 
96.4713 10.5224 0 
95.9419 11.8604 0 
95.1776 10.3645 0 
96.4133 10.2314 0 
96.2838 10.2827 0 
95.6737 11.9225 0 
94.3028 11.4474 0 
96.5057 11.4894 0 
94.7023 10.8294 0 
95.1167 10.4705 0 
95.1854 12.8771 0 
95.8418 13.137 0 
95.7992 12.8945 0 
96.2505 13.4442 0 
95.1734 12.92 0 
96.6013 12.6113 0 
94.8112 14.7318 0 
94.9083 13.1692 0 
94.1907 13.2424 0 
95.9372 14.4209 0 
96.0341 14.4021 0 
95.8985 14.0656 0 
96.6547 13.1162 0 
94.7542 14.3612 0 
95.0368 13.4924 0 
95.1211 12.4567 0 
94.5669 14.8276 0 
96.4933 16.1511 0 
95.495 15.9191 0 
96.6865 15.8617 0 
96.6959 16.405 0 
94.789 17.4566 0 
95.9809 15.9866 0 
94.7235 15.7094 0 
94.8416 16.4781 0 
96.4471 17.2472 0 
95.4097 16.2191 0 
94.9888 16.8209 0 
96.487 16.2348 0 
96.2714 16.2227 0 
96.5584 15.0413 0 
95.7002 15.3522 0 
95.7312 15.6886 0 
96.071 17.1452 0 
95.0161 17.4402 0 
96.6292 18.7797 0 
94.743 17.8011 0 
95.0865 19.55 0 
94.8498 19.2404 0 
96.5796 19.9073 0 
96.6715 19.1396 0 
94.1772 18.0448 0 
96.3618 17.8464 0 
95.1421 17.6128 0 
96.819 19.0911 0 
96.0459 19.8685 0 
95.3972 21.9145 0 
96.0304 21.4838 0 
94.3915 20.7485 0 
96.1921 20.1923 0 
96.7871 22.2787 0 
94.5645 24.8817 0 
95.3283 27.7121 0 
94.4421 26.5501 0 
96.866 25.2408 0 
95.0767 26.129 0 
94.7115 27.537 0 
95.2429 26.6795 0 
94.8768 27.9432 0 
94.9283 28.6373 0 
95.7586 27.864 0 
95.4081 29.5057 0 
96.4788 30.0665 0 
95.8266 28.6972 0 
94.8615 28.624 0 
96.4349 29.5932 0 
96.2388 31.1057 0 
95.6294 31.3956 0 
95.268 29.9475 0 
95.7327 29.7112 0 
96.8393 29.2889 0 
95.3005 30.6905 0 
96.5678 31.1922 0 
95.7683 31.1785 0 
96.911 31.2023 0 
95.3797 31.0733 0 
96.024 32.4078 0 
94.4499 30.6398 0 
94.8234 31.2739 0 
95.8296 30.2732 0 
94.2901 32.1053 0 
94.9791 30.5692 0 
95.6482 31.5483 0 
95.3665 32.2129 0 
96.1021 31.7531 0 
96.2076 30.9756 0 
94.3169 30.6349 0 
96.2899 29.5373 0 
96.0192 30.3739 0 
96.4251 31.549 0 
95.8458 30.5134 0 
96.3761 31.6404 0 
96.3474 33.6139 0 
94.2323 33.974 0 
94.7625 33.4075 0 
96.4914 33.1535 0 
94.0424 32.8335 0 
95.6967 33.616 0 
94.5066 33.1655 0 
96.602 34.3504 0 
96.1007 33.0003 0 
94.7991 33.4782 0 
96.3062 33.584 0 
96.7858 33.0737 0 
96.2704 32.1858 0 
94.4379 32.2262 0 
96.4783 33.3299 0 
95.3716 34.4747 0 
94.9083 33.6712 0 
94.2571 33.8183 0 
95.6646 34.2338 0 
96.3952 33.2516 0 
96.592 32.2372 0 
94.4819 35.133 0 
95.3016 35.05 0 
96.0819 35.3478 0 
94.7877 35.9766 0 
96.3166 34.9828 0 
95.2189 36.2724 0 
96.4069 35.3392 0 
96.6238 35.5797 0 
96.0152 35.6678 0 
94.7955 34.9196 0 
95.2536 35.8887 0 
94.7451 36.0927 0 
95.9968 36.5745 0 
96.4352 34.9221 0 
96.029 37.8364 0 
94.8352 35.1079 0 
95.3266 35.052 0 
95.5709 34.4419 0 
95.0422 38.5894 0 
96.5565 37.4767 0 
95.21 37.6565 0 
94.7832 38.3115 0 
96.2345 37.4673 0 
94.4248 37.0221 0 
95.7723 38.5575 0 
94.6575 37.3171 0 
96.342 39.3812 0 
95.3733 38.2807 0 
95.5492 38.0733 0 
95.6714 36.9302 0 
96.4603 39.2818 0 
96.0723 37.6833 0 
97.0646 2.02918 0 
98.132 0.267257 0 
98.6555 2.01046 0 
98.329 1.4483 0 
98.8678 37.6424 0 
98.6109 0.529663 0 
98.4458 1.13503 0 
97.9575 0.189428 0 
97.3058 1.65559 0 
98.7934 0.0480697 0 
98.4506 1.45532 0 
98.9859 1.44333 0 
99.1663 1.29703 0 
98.8192 0.837178 0 
98.8638 37.9989 0 
97.6249 0.570112 0 
98.7832 0.0732562 0 
98.4332 1.35532 0 
97.745 0.0137584 0 
97.2142 38.8297 0 
98.2958 0.950856 0 
97.9054 1.79931 0 
96.9645 1.32621 0 
98.5732 39.3276 0 
97.7933 0.516834 0 
97.5385 0.551557 0 
98.4612 0.00161801 0 
97.3923 0.550624 0 
98.7999 1.64765 0 
97.2823 1.94786 0 
98.6164 1.44609 0 
99.0451 1.18532 0 
99.2243 1.44274 0 
98.5163 1.18064 0 
96.8396 0.103409 0 
98.5396 1.6908 0 
98.8783 38.7297 0 
99.1137 0.92652 0 
98.1263 0.826976 0 
97.9464 2.51345 0 
98.1006 2.59956 0 
98.7046 3.9216 0 
97.9455 3.06142 0 
99.3238 4.23611 0 
96.9763 3.54578 0 
99.1095 4.15133 0 
99.2088 3.62065 0 
97.9205 4.24094 0 
98.4739 2.05397 0 
98.0671 2.3607 0 
[...]
      <PointData Vectors="vector">
        <DataArray type="Float32" Name="Velocity" NumberOfComponents="3" format="ascii">

-236.161 -173.348 0 
-228.512 -147.097 0 
-231.478 -103.832 0 
-170.659 -121.526 0 
-203.068 -121.883 0 
-118.652 114.541 0 
-204.12 -67.0248 0 
-206.133 -75.7291 0 
-180.913 -28.5737 0 
-198.513 14.2936 0 
-176.138 15.3683 0 
-178.135 66.3161 0 
-211.193 -117.419 0 
-182.253 -130.089 0 
-194.308 -83.7115 0 
-184.121 -74.4826 0 
-144.838 109.627 0 
-179.648 -110.349 0 
-171.879 -57.0134 0 
-174.708 -52.1782 0 
-177.401 -65.8375 0 
-171.815 -46.1338 0 
-155.421 -56.5102 0 
-179.753 -6.93384 0 
-157.812 -6.87895 0 
-133.074 15.5618 0 
-133.543 23.6829 0 
-176.288 4.72184 0 
-114.322 24.912 0 
-144.898 37.1391 0 
-146.511 100.307 0 
-135.843 80.4613 0 
-163.251 85.5827 0 
-178.555 -144.948 0 
-175.545 -117.634 0 
-194.33 -99.345 0 
-220.635 -87.3161 0 
-188.235 -117.47 0 
-176.495 -131.23 0 
-139.816 98.8266 0 
-169.644 -80.7813 0 
-147.863 -92.9219 0 
-172.449 -128.457 0 
-186.991 -149.605 0 
-174.498 -115.174 0 
-188.129 -106.707 0 
-176.05 -85.0071 0 
-136.545 -129.863 0 
-181.697 -107.776 0 
-153.34 -74.6788 0 
-181.557 -51.5386 0 
-147.122 -72.4044 0 
-189.274 -82.4518 0 
-152.601 -63.1962 0 
-155.241 -81.0766 0 
-113.538 103.295 0 
-183.495 -106.794 0 
-161.293 -74.6546 0 
-146.643 -62.7983 0 
-199.137 -83.5856 0 
-168.473 -74.8539 0 
-141.162 -88.669 0 
-118.615 81.4885 0 
-168.329 -20.9833 0 
-145.493 -52.2178 0 
-165.81 -79.2077 0 
-181.704 -95.9698 0 
-170.118 -39.0759 0 
-151.936 -31.9348 0 
-168.287 -18.0677 0 
-160.029 -32.8395 0 
-179.039 -42.8154 0 
-170.863 3.43423 0 
-172.903 -11.7901 0 
-140.969 -9.7453 0 
-142.37 -3.04269 0 
-156.449 -31.0079 0 
-147.797 20.6086 0 
-116.823 60.2129 0 
-172.01 18.3946 0 
-133.978 1.22738 0 
-110.25 29.2158 0 
-181.088 -1.45624 0 
-151.699 -148.729 0 
-118.228 59.0184 0 
-135.133 -147.033 0 
-88.0886 47.0828 0 
-175.21 43.8293 0 
-165.57 -172.044 0 
-125.52 46.5459 0 
-165.413 -141.495 0 
-182.335 -143.933 0 
-178.333 -128.048 0 
-188.17 -123.72 0 
-177.633 -127.791 0 
-154.221 74.6301 0 
-118.719 81.1739 0 
-151.425 -58.9662 0 
-136.296 88.4312 0 
-177.807 -83.0095 0 
-126.334 -102.973 0 
-179.8 -127.898 0 
-191.578 -111.177 0 
-183.158 -111.423 0 
-143.627 -123.958 0 
-126.798 103.718 0 
-111.459 98.3179 0 
-182.086 -135.239 0 
-226.405 -99.6542 0 
-166.164 -116.454 0 
-152.318 -113.001 0 
-161.671 -84.9219 0 
-178.67 -92.0368 0 
-114.042 76.9496 0 
-156.461 -117.944 0 
-184.807 -108.467 0 
-169.316 -96.0411 0 
-139.984 -119.887 0 
-163.748 -97.1354 0 
-156.408 -90.9272 0 
-168.896 -71.2033 0 
-180.783 -86.0945 0 
-144.39 -99.3059 0 
-146.973 -65.7046 0 
-183.665 -85.002 0 
-159.25 -110.934 0 
-171.992 -59.6806 0 
-146.874 -117.629 0 
-118.996 115.124 0 
-134.382 135.748 0 
-178.829 -117.734 0 
-139.96 -126.38 0 
-115.618 142.721 0 
-167.193 -96.9066 0 
-171.178 -99.95 0 
-157.388 -78.968 0 
-183.793 -69.7518 0 
-154.564 -56.6898 0 
-180.971 -56.9498 0 
-150.314 -45.4802 0 
-124.927 -95.7858 0 
-159.012 -100.228 0 
-127.468 -63.1582 0 
-130.143 -97.4297 0 
-152.923 -83.8575 0 
-151.213 -51.342 0 
-120.144 -75.542 0 
-167.846 -104.99 0 
-146.489 -68.7627 0 
-157.74 -78.7609 0 
-189.933 -83.6283 0 
-193.446 -83.0378 0 
-165.628 -92.7484 0 
-133.031 -61.0394 0 
-165.451 -51.8455 0 
-173.753 -71.12 0 
-165.944 -59.7418 0 
-162.649 -60.7021 0 
-147.675 -48.0984 0 
-131.059 -40.5017 0 
-189.075 -77.1815 0 
-180.053 -78.6002 0 
-139.844 -72.9368 0 
-152.715 -85.8278 0 
-170.435 -50.7591 0 
-173.452 -40.2469 0 
-189.778 -73.7629 0 
-172.886 -37.5469 0 
-130.663 -14.781 0 
-167.399 -47.0352 0 
-130.043 -64.3212 0 
-146.7 -33.8265 0 
-161.448 -12.9122 0 
-189.288 -70.2998 0 
-159.789 -19.3027 0 
-174.692 -72.6822 0 
-158.137 5.38018 0 
-185.798 -47.0756 0 
-168.68 -58.0789 0 
-144.56 -25.7004 0 
-181.537 -26.4305 0 
-159.763 -15.3581 0 
-182.862 -44.5782 0 
-191.267 -68.0821 0 
-134.354 -27.288 0 
-154.677 -43.7856 0 
-150.815 -0.698481 0 
-141.466 -35.9339 0 
-157.571 -21.4134 0 
-138.406 13.9362 0 
-203.725 -45.2903 0 
-177.506 -60.2849 0 
-145.805 -27.1463 0 
-143.734 -35.3835 0 
-171.879 -32.3324 0 
-167.097 -2.47121 0 
-143.333 -25.3863 0 
-165.661 -13.3098 0 
-150.039 2.1388 0 
-162.348 22.62 0 
-160.821 20.9095 0 
-144.154 -0.292524 0 
-142 11.8642 0 
-104.948 -10.6035 0 
-159.247 4.07637 0 
-172.002 -4.3757 0 
-156.294 24.043 0 
-126.299 8.3753 0 
-135.4 -17.779 0 
-111.834 -23.5758 0 
-134.445 25.6882 0 
-108.19 30.2761 0 
-162.267 48.1759 0 
-144.504 8.30556 0 
-138.982 32.3432 0 
-154.799 52.0058 0 
-104.214 51.9376 0 
-130.68 20.4771 0 
-170.947 27.6161 0 
-91.3868 44.0492 0 
-130.723 -148.746 0 
-162.359 61.3439 0 
-132.124 -158.962 0 
-116.965 54.7326 0 
-163.689 32.7257 0 
-105.98 44.3799 0 
-120.218 46.406 0 
-165.865 62.7008 0 
-183.097 -177.551 0 
-139.839 -160.862 0 
-144.887 -142.567 0 
-143.97 19.7234 0 
-133.481 77.9464 0 
-112.682 -135.705 0 
-166.837 -147.201 0 
-154.422 40.7144 0 
-141.268 -138.317 0 
-155.979 83.5587 0 
-210.523 -113.953 0 
-209.102 -125.629 0 
-223.126 -115.247 0 
-222.687 -115.768 0 
-120.207 -164.991 0 
-137.432 -102.944 0 
-161.332 -126.153 0 
-182.201 -141.083 0 
-125.409 56.2619 0 
-119.927 58.0282 0 
-132.673 59.3596 0 
-159.681 -148.756 0 
-170.997 -128.404 0 
-138.217 82.6624 0 
-155.649 -133.704 0 
-219.684 -70.7618 0 
-197.777 -85.7827 0 
-178.698 -131.034 0 
-179.638 -154.894 0 
-177.431 -149.267 0 
-162.65 -132.408 0 
-158.834 -115.455 0 
-152.55 -85.2031 0 
-163.487 -100.179 0 
-213.44 -65.6012 0 
-133.208 71.6327 0 
-134.196 -124.261 0 
-141.805 -91.8121 0 
-124.771 71.1367 0 
-147.586 -110.879 0 
-139.141 -112.573 0 
-180.248 -86.4955 0 
-123.22 -94.0102 0 
-133.634 -137.287 0 
-131.274 -93.7416 0 
-171.103 -90.4601 0 
-176.042 -106.01 0 
-139.807 -105.333 0 
-136.389 -64.5484 0 
-165.183 -99.3036 0 
-185.885 -109.283 0 
-126.14 95.9869 0 
-128.179 -108.078 0 
-170.721 -101.677 0 
-134.706 -113.152 0 
-147.951 -114.698 0 
-147.791 -89.7746 0 
-170.986 -99.6634 0 
-127.709 -88.328 0 
-187.605 -97.0985 0 
-130.262 -117.344 0 
-103.824 -117.786 0 
-160.168 -78.2645 0 
-101.988 93.8515 0 
-159.782 -101.118 0 
-160.787 -159.606 0 
-153.185 -98.7821 0 
-140.57 -113.758 0 
-128.851 -112.17 0 
-187.338 -76.3271 0 
-167.657 -116.358 0 
-178.805 -92.5904 0 
-153.419 -67.8102 0 
-130.068 -96.3017 0 
-161.043 -124.989 0 
-145.256 -88.6152 0 
-161.021 -131.884 0 
-125.094 -109.93 0 
-152.053 -67.4691 0 
-147.594 -97.6179 0 
-149.3 -64.9012 0 
-130.383 -91.901 0 
-184.481 -102.602 0 
-170.81 -113.073 0 
-165.892 -109.228 0 
-123.767 -77.0686 0 
-104.038 114.949 0 
-147.95 -104.826 0 
-168.694 -98.5237 0 
-179.912 -91.2017 0 
-126.555 -85.8099 0 
-134.013 -80.0597 0 
-145.958 -58.6327 0 
-156.897 -86.1416 0 
-157.922 -100.405 0 
-139.831 -115.24 0 
-125.034 -73.2244 0 
-128.578 -82.8517 0 
-134.62 -110.939 0 
-127.655 -87.459 0 
-135.854 -91.5367 0 
-153.885 -43.3379 0 
-161.942 -80.0499 0 
-153.357 -47.8581 0 
-104.355 -86.1862 0 
-134.676 -37.972 0 
-158.8 -70.3376 0 
-184.248 -67.9914 0 
-182.846 -49.5618 0 
-186.729 -34.4126 0 
-163.097 -77.6474 0 
-169.361 -66.8636 0 
-150.299 -72.8186 0 
-170.899 -67.1337 0 
-167.664 -106.433 0 
-140.185 -49.4596 0 
-135.878 -58.7508 0 
-128.344 -54.1747 0 
-163.993 -71.2298 0 
-185.396 -52.1499 0 
-185.69 -39.7024 0 
-166.096 -76.4973 0 
-165.599 -62.5597 0 
-150.972 -56.3103 0 
-124.064 -58.1822 0 
-132.474 -82.7933 0 
-151.92 -75.2205 0 
-125.365 -75.8263 0 
-145.485 -76.1068 0 
-190.981 -90.0548 0 
-136.436 -74.7743 0 
-153.878 -55.5858 0 
-117.879 -39.7531 0 
-134.333 -80.5513 0 
-194.22 -68.6574 0 
-185.84 -50.3886 0 
-159.35 -78.3202 0 
-153.856 -94.1719 0 
-143.176 -43.9742 0 
-159.464 -76.2712 0 
-138.79 -59.3834 0 
-159.479 -32.3355 0 
-193.713 -84.4097 0 
-167.402 -56.6407 0 
-137.8 -75.8021 0 
-188.173 -78.8244 0 
-141.796 -34.9315 0 
-186.777 -73.879 0 
-152.358 -69.7166 0 
-146.848 -39.6712 0 
-177.57 -55.9485 0 
-154.136 -45.5158 0 
-123.349 -88.2656 0 
-137.795 -39.3834 0 
-146.098 -81.4137 0 
-145.354 -38.9734 0 
-170.611 -66.588 0 
-144.245 -55.0372 0 
-156.568 -53.3105 0 
-169.299 -31.4786 0 
-127.594 -54.2136 0 
-127.85 -68.2429 0 
-138.802 -28.3863 0 
-147.823 -25.5152 0 
-159.497 -42.4097 0 
-146.782 -21.7682 0 
-136.165 -28.4274 0 
-119.616 -37.6344 0 
-93.9838 -43.1571 0 
-145.324 -75.103 0 
-178.81 -61.0797 0 
-166.975 -37.3266 0 
-180.282 -28.5053 0 
-170.063 -60.848 0 
-208.629 -20.5867 0 
-138.401 -29.7306 0 
-177.838 -36.11 0 
-171.684 8.1103 0 
-160.12 -24.0153 0 
-147.867 -10.0078 0 
-142.445 -35.4951 0 
-180.309 -5.55526 0 
-132.188 -39.036 0 
-152.067 -20.6984 0 
-192.814 -16.472 0 
-175.614 13.0253 0 
-169.98 -28.3752 0 
-139.799 -11.0744 0 
-173.831 22.0431 0 
-151.409 -46.1586 0 
-185.539 -20.5447 0 
-161.213 -8.70627 0 
-154.835 -20.3357 0 
-148.571 -9.1804 0 
-144.859 -36.0198 0 
-125.51 -20.4549 0 
-172.764 -1.39665 0 
-156.623 -26.9126 0 
-190.589 2.57222 0 
-156.592 5.92436 0 
-155.447 15.4935 0 
-144.397 21.1067 0 
-161.061 48.6417 0 
-163.697 -10.3573 0 
-153.502 38.1001 0 
-149.364 8.22629 0 
-151.008 1.1743 0 
-107.412 -5.18337 0 
-91.5271 -21.7206 0 
-173.007 9.38968 0 
-150.775 15.5127 0 
-107.114 17.3582 0 
-83.0793 7.76609 0 
-149.403 22.7153 0 
-92.1487 -8.95314 0 
-97.4917 27.882 0 
-147.423 8.38456 0 
-121.089 70.4862 0 
-184.679 -138.546 0 
-184.67 -154.511 0 
-179.01 -141.006 0 
-169.024 -179.637 0 
-210.58 -134.991 0 
-172.197 -163.65 0 
-114.734 -165.936 0 
-111.338 24.637 0 
-137.383 44.8307 0 
-114.666 -170.373 0 
-115.824 -174.773 0 
-122.413 33.1529 0 
-170.693 -143.841 0 
-170.91 -131.906 0 
-202.328 -184.211 0 
-205.583 -180.733 0 
-164.962 -164.365 0 
-118.433 60.6061 0 
-139.091 59.9903 0 
-169.057 -171.91 0 
-109.095 57.6757 0 
-161.583 -154.356 0 
-116.2 7.33375 0 
-118.604 20.9287 0 
-132.342 38.8503 0 
-207.662 -185.093 0 
-134.185 44.648 0 
-142.459 -144.057 0 
-143.088 -193.237 0 
-118.783 27.0967 0 
-111.155 45.2395 0 
-153.007 -174.656 0 
-138.189 -141.012 0 
-131.737 -150.293 0 
-153.993 -157.372 0 
-175.346 -115.558 0 
-174.907 -124.565 0 
-161.954 -76.0945 0 
-185.538 -115.476 0 
-190.101 -112.145 0 
-191.563 -93.9372 0 
-199.536 -108.198 0 
-174.41 -110.8 0 
-201.971 -111.349 0 
-174.933 -121.779 0 
-193.276 -150.75 0 
-145.976 -147.458 0 
-135.274 -156.875 0 
-175.588 -141.9 0 
-161.547 -152.152 0 
-149.382 93.7376 0 
-138.527 -130.682 0 
-141.058 48.9597 0 
-128.071 -140.523 0 
-124.254 -176.072 0 
-161.835 -170.447 0 
-206.901 -91.8203 0 
-186.781 -74.8261 0 
-185.498 -110.991 0 
-194.247 -93.2909 0 
-167.191 -90.7849 0 
-157.684 -73.6272 0 
-192.796 -85.9056 0 
-178.051 -101.569 0 
-202.123 -96.8384 0 
-165.496 -91.703 0 
-147.123 -87.3199 0 
-144.024 -125.722 0 
-128.688 61.2489 0 
-143.849 -157.448 0 
-143.253 -78.3875 0 
-105.565 -98.5039 0 
-162.307 -158.621 0 
-164.048 -89.8066 0 
-154.232 -145.255 0 
-155.039 -161.114 0 
-143.808 -131.969 0 
-139.866 -127.911 0 
-197.401 -61.706 0 
-214.353 -94.7663 0 
-92.8331 73.5495 0 
-152.542 -119.61 0 
-113.081 59.7212 0 
-153.779 -109.938 0 
-164.17 -96.8291 0 
-133.637 91.3617 0 
-140.724 -125.131 0 
-134.262 101.641 0 
-156.205 -126.029 0 
-165.768 -84.6167 0 
-172.488 -59.1018 0 
-171.156 -93.8246 0 
-164.681 -75.5271 0 
-187.329 -106.177 0 
-169.012 -96.4409 0 
-185.445 -86.1267 0 
-175.18 -114.257 0 
-173.1 -89.4322 0 
-157.052 -105.382 0 
-117.687 -92.0768 0 
-134.157 -112.25 0 
-177.4 -95.4433 0 
-180.347 -101.268 0 
-165.288 -63.9731 0 
-118.517 -113.494 0 
-174.916 -119.145 0 
-175.087 -126.887 0 
-158.096 -86.3725 0 
-123.333 -90.5604 0 
-127.366 -128.154 0 
-131.028 -132.137 0 
-197.901 -106.18 0 
-160.177 -95.546 0 
-159.913 -102.954 0 
-127.124 -95.6462 0 
-154.825 -84.7345 0 
-157.851 -123.157 0 
-127.696 -107.335 0 
-127.194 -116.149 0 
-142.669 -148.432 0 
-165.622 -104.057 0 
-145.294 -92.6263 0 
-131.944 -118.38 0 
-137.236 -124.282 0 
-155.919 -100.533 0 
-170.085 -137.375 0 
-131.017 -100.123 0 
-126.588 -86.4787 0 
-152.607 -101.751 0 
-177.279 -120.562 0 
-170.869 -91.1546 0 
-111.977 -92.5977 0 
-167.087 -98.0856 0 
-118.728 -76.5499 0 
-165.788 -112.347 0 
-146.748 -118.96 0 
-123.318 -135.529 0 
-190.979 -108.098 0 
-174.584 -116.837 0 
-122.623 125.446 0 
-155.053 -86.5891 0 
-179.485 -98.0757 0 
-163.337 -132.153 0 
-144.732 -149.134 0 
-186.759 -72.0473 0 
-163.475 -71.2602 0 
-165.089 -111.053 0 
-162.871 -69.2674 0 
-128.14 -121.962 0 
-166.278 -124.559 0 
-150.277 -129.415 0 
-141.185 -99.2834 0 
-125.995 -47.8198 0 
-158.368 -129.712 0 
-124.096 -100.159 0 
-122.141 70.7311 0 
-126.987 -107.51 0 
-154.895 -118.678 0 
-141.773 -86.2238 0 
-131.104 -117.23 0 
-184.041 -72.0634 0 
-162.82 -105.304 0 
-156.711 -85.378 0 
-147 -119.209 0 
-139.152 -104.138 0 
-138.036 -90.3684 0 
-160.02 -89.5691 0 
-118.437 125.103 0 
-175.727 -139.113 0 
-143.834 -106.506 0 
-159.167 -120.736 0 
-172.603 -77.0527 0 
-147.18 -122.745 0 
-145.962 -84.4676 0 
-138.266 -99.428 0 
-93.4129 -66.8115 0 
-151.387 -85.9407 0 
-157.853 -119.042 0 
-146.683 -122.203 0 
-159.613 -109.576 0 
-145.146 -101.645 0 
-99.8239 -100.397 0 
-177.359 -96.7745 0 
-185.71 -56.8734 0 
-190.948 -56.8325 0 
-176.157 -74.3177 0 
-185.49 -47.1042 0 
-198.088 -71.4347 0 
-189.278 -62.5149 0 
-179.528 -106.711 0 
-102.299 -79.0156 0 
-149.114 -63.4929 0 
-127.288 -67.9196 0 
-143.284 -73.3887 0 
-153.288 -63.7426 0 
-118.041 -86.203 0 
-114.264 -101.94 0 
-121.243 -120.392 0 
-115.828 -67.9783 0 
-145.286 -94.8573 0 
-151.694 -74.6582 0 
-154.541 -87.1086 0 
-134.945 -97.2023 0 
-159.29 -65.3016 0 
-133.871 -88.5631 0 
-149.121 -64.9674 0 
-161.053 -107.875 0 
-169.426 -83.0587 0 
-159.496 -89.6298 0 
-150.39 -75.3702 0 
-113.118 -96.6183 0 
-172.847 -73.8515 0 
-132.341 -50.7139 0 
-137.554 -74.0657 0 
-150.166 -85.0553 0 
-169.591 -82.5822 0 
-177.505 -66.7844 0 
-114.071 107.957 0 
-163.31 -62.6905 0 
-131.432 -89.4018 0 
-153 -94.8918 0 
-144.515 -61.6266 0 
-127.951 -78.3855 0 
-179.785 -59.2788 0 
-135.571 -84.1499 0 
-191.481 -50.0141 0 
-181.099 -52.9698 0 
-143.9 -60.3531 0 
-103.37 -81.5787 0 
-124.498 -58.0556 0 
-170.749 -55.5438 0 
-134.283 -74.2484 0 
-138.133 -64.5023 0 
-141.663 -27.2459 0 
-174.216 -34.1721 0 
-136.407 -78.2212 0 
-151.61 -103.257 0 
-131.915 -84.7191 0 
-121.842 -67.2687 0 
-116.36 -73.8369 0 
-124.658 -80.2684 0 
-130.259 -41.2441 0 
-141.733 -76.933 0 
-161.39 -67.3197 0 
-161.447 -77.4792 0 
-131.634 -93.7024 0 
-155.905 -84.9697 0 
-146.067 -75.8144 0 
-160.443 -45.572 0 
-111.43 -79.9372 0 
-105.597 -81.2174 0 
-136.774 -57.7514 0 
-157.378 -91.0137 0 
-136.416 -64.431 0 
-158.243 -75.2099 0 
-131.884 -83.3918 0 
-130.889 -56.8895 0 
-142.784 -84.569 0 
-159.505 -85.8324 0 
-168.269 -0.111999 0 
-167.944 12.2345 0 
-173.441 -34.0767 0 
-117.635 -49.3244 0 
-159.637 -54.6257 0 
-167.337 -78.9685 0 
-172.727 -46.0721 0 
-110.539 -42.3089 0 
-130.55 -52.029 0 
-139.088 -55.0613 0 
-133.789 -47.1494 0 
-144.675 -26.3373 0 
-104.694 -44.6734 0 
-160.172 -50.2104 0 
-146.89 -70.0065 0 
-153.989 -75.2791 0 
-127.201 -52.9858 0 
-144.693 -41.2452 0 
-145.409 -15.5079 0 
-149.903 -76.3407 0 
-140.712 -56.2566 0 
-126.437 -37.7162 0 
-131.551 -30.3504 0 
-157.3 -62.8883 0 
-163.989 -44.4445 0 
-147.646 -50.0517 0 
-152.774 -47.1054 0 
-134.395 -54.8879 0 
-165.751 -38.2416 0 
-133.611 -36.0908 0 
-122.53 -41.8389 0 
-141.612 -86.2654 0 
-195.577 -45.089 0 
-103.409 -40.8586 0 
-154.455 -32.799 0 
-133.011 -51.8561 0 
-134.477 -30.8876 0 
-136.525 0.15985 0 
-151.657 -35.9501 0 
-137.398 -38.3391 0 
-145.717 -70.9399 0 
-125.783 -63.7533 0 
-160.6 -65.3257 0 
-132.681 -74.6256 0 
-101.841 -42.1161 0 
-109.483 -31.2293 0 
-124.742 -47.9146 0 
-139.345 -60.0065 0 
-161.956 -27.3634 0 
-162.287 -66.6948 0 
-183.663 0.936397 0 
-165.787 -18.4746 0 
-112.268 -14.155 0 
-116.723 -11.4222 0 
-143.808 0.670664 0 
-146.961 -5.04071 0 
-117.029 -5.07721 0 
-134.421 6.17939 0 
-134.808 -14.026 0 
-167.584 -43.683 0 
-137.12 -23.5551 0 
-136.112 -68.2233 0 
-138.576 -40.3725 0 
-134.733 -1.81339 0 
-137.962 -1.34265 0 
-142.601 -3.86727 0 
-195.196 -10.6765 0 
-164.549 -20.3248 0 
-146.055 12.736 0 
-133.463 -20.2606 0 
-132.444 3.09856 0 
-163.092 -25.0143 0 
-180.18 -26.7731 0 
-152.394 5.92917 0 
-104.104 -8.18078 0 
-110.765 12.3319 0 
-153.222 -2.5602 0 
-133.167 -15.7493 0 
-158.989 -63.5546 0 
-116.549 -34.8063 0 
-127.946 -12.4348 0 
-145.026 7.39503 0 
-126.307 3.84184 0 
-115.221 -20.3866 0 
-136.184 3.56021 0 
-154.237 -22.1947 0 
-133.48 3.5425 0 
-186.827 -50.9033 0 
-146.826 -27.1435 0 
-153.506 -9.58754 0 
-129.439 -42.6671 0 
-142.488 6.77697 0 
-131.077 -0.109984 0 
-143.119 -8.44973 0 
-138.982 -3.76072 0 
-121.626 -15.335 0 
-163.158 -8.71428 0 
-148.87 -16.1326 0 
-130.331 6.60279 0 
-138.39 -15.124 0 
-188.81 24.3417 0 
-168.389 -13.7704 0 
-124.179 9.86777 0 
-157.973 -2.60379 0 
-147.774 -36.811 0 
-130.682 -3.93385 0 
-137.815 6.63112 0 
-122.902 1.78892 0 
-132.671 -44.0241 0 
-122.612 9.21142 0 
-142.947 -31.9568 0 
-117.536 19.631 0 
-111.921 -10.1985 0 
-144.743 9.05454 0 
-106.847 -10.9381 0 
-154.946 25.6609 0 
-116.224 42.4271 0 
-156.374 -7.34466 0 
-203.805 -11.6059 0 
-100.8 20.652 0 
-129.238 19.356 0 
-104.24 6.85131 0 
-118.144 -16.977 0 
-142.669 1.63272 0 
-123.158 21.244 0 
-136.234 -141.089 0 
-160.281 38.8932 0 
-94.4294 5.88784 0 
-133.639 12.7556 0 
-113.251 31.7944 0 
-119.575 36.4651 0 
-178.89 -130.346 0 
-188.098 -124.89 0 
-172.851 -158.44 0 
-144.125 -12.2273 0 
-129.083 15.6557 0 
-96.7547 -179.067 0 
-138.04 56.6745 0 
-82.4454 27.7022 0 
-200.333 -155.589 0 
-175.163 -129.092 0 
-99.8721 42.4375 0 
-141.15 -184.49 0 
-167.797 -187.828 0 
-168.367 -177.904 0 
-107.985 21.2871 0 
-139.845 -155.34 0 
-107.667 32.004 0 
-119.037 -171.245 0 
-178.013 -144.091 0 
-179.626 -126.74 0 
-179.847 -146.915 0 
-144.681 -108.909 0 
-194.337 -143.577 0 
-187.936 -127.809 0 
-175.627 -134.569 0 
-141.868 -171.955 0 
-98.8639 58.6675 0 
-147.68 -178.628 0 
-158.785 -176.162 0 
-166.645 -191.305 0 
-142.97 -144.882 0 
-111.346 63.1288 0 
-170.411 -138.964 0 
-120.596 33.8189 0 
-155.534 -141.352 0 
-161.597 -154.471 0 
-97.6959 35.6105 0 
-113.306 -169.034 0 
-113.863 49.9329 0 
-171.878 -170.773 0 
-96.4632 -166.83 0 
-162.053 -147.951 0 
-175.164 -148.765 0 
-180.842 -113.892 0 
-173.337 -132.277 0 
-174.564 -117.694 0 
-167.315 -96.8311 0 
-171.421 -148.119 0 
-151.734 -113.994 0 
-171.823 -135.662 0 
-180.947 -119.248 0 
-161.172 -114.043 0 
-203.4 -110.284 0 
-173.007 -135.028 0 
-177.44 -150.56 0 
-195.242 -117.123 0 
-144.96 -163.169 0 
-132.298 -120.494 0 
-125.355 -155.924 0 
-110.385 -104.883 0 
-106.268 -187.451 0 
-132.926 -147.925 0 
-136.618 -143.69 0 
-100.003 -146.098 0 
-127.437 40.2874 0 
-142.962 -177.11 0 
-132.201 -147.16 0 
-111.285 -156.221 0 
-149.742 -122.602 0 
-166.958 -112.813 0 
-105.382 67.5616 0 
-137.06 -151.433 0 
-168.397 -145.027 0 
-155.273 -127.352 0 
-133.701 -152.823 0 
-189.138 -70.5265 0 
-152.222 -125.165 0 
-174.496 -104.056 0 
-173.896 -114.951 0 
-152.857 -113.241 0 
-160.299 -100.964 0 
-176.581 -103.04 0 
-192.155 -134.441 0 
-190.728 -106.044 0 
-182.357 -98.6309 0 
-161.728 -114.464 0 
-192.914 -111.283 0 
-161.27 -122.593 0 
-163.176 -96.419 0 
-161.81 -132.421 0 
-183.759 -78.7587 0 
-164.988 -145.283 0 
-153.141 -107.67 0 
-154.933 -164.655 0 
-135.134 -127.684 0 
-119.563 -135.005 0 
-97.8617 79.8575 0 
-167.246 -125.947 0 
-135.096 -110.78 0 
-174.909 -141.975 0 
-153.56 -149.689 0 
-176.997 -127.068 0 
-141.874 -111.165 0 
-148.945 -150.466 0 
-122.151 -133.176 0 
-123.912 -136.118 0 
-141.479 -150.181 0 
-135.255 -143.247 0 
-130.723 -135.296 0 
-162.353 -116.788 0 
-140.239 -150.706 0 
-119.715 -148.171 0 
-136.984 -162.827 0 
-127.871 -129.347 0 
-142.334 -117.466 0 
-138.884 -144.322 0 
-149.08 -152.507 0 
-132.297 -133.021 0 
-132.892 -82.1889 0 
-205.446 -144.545 0 
-151.44 -142.523 0 
-152.169 -143.762 0 
-130.502 -146.238 0 
-111.841 -121.778 0 
-158.919 -160.665 0 
-165.657 -124.696 0 
-93.6187 68.3243 0 
-114.974 -133.969 0 
-134.152 -147.276 0 