<VTKFile type="UnstructuredGrid" version="0.1" byte_order="BigEndian">
  <UnstructuredGrid>
        <Piece NumberOfPoints="8000" NumberOfCells="0" Time= "0.315">      <Points>
        <DataArray name="Position" type="Float32"  NumberOfComponents= "3"  format="ascii">

69.5117 27.3641 0 
70.797 33.6592 0 
73.2411 0.364506 0 
71.4714 30.675 0 
73.4314 31.4744 0 
74.6043 15.4208 0 
74.4298 25.4469 0 
75.9191 27.7788 0 
74.6855 30.4386 0 
75.7719 30.9046 0 
74.6668 33.5096 0 
75.0863 37.6904 0 
74.2208 38.024 0 
75.7638 38.8369 0 
74.7198 37.9334 0 
76.8931 0.724098 0 
78.7135 2.90926 0 
78.0854 2.81119 0 
79.0109 4.19928 0 
78.9027 6.00153 0 
77.7807 5.38483 0 
79.0539 10.3817 0 
77.9475 11.9874 0 
78.3524 10.8835 0 
79.1114 15.972 0 
78.0613 18.3018 0 
77.9333 24.8731 0 
78.2805 26.7583 0 
78.6427 28.4587 0 
78.7079 30.5214 0 
77.0156 29.8517 0 
77.3585 31.8207 0 
78.1677 31.4393 0 
78.1807 33.86 0 
76.8178 33.7411 0 
78.3489 34.2582 0 
77.8069 34.4408 0 
78.4282 35.642 0 
81.0383 1.02279 0 
81.3007 38.5713 0 
79.3817 1.32644 0 
80.0559 0.986703 0 
79.0429 1.22051 0 
80.0876 4.04659 0 
80.1661 2.84661 0 
80.9448 3.63503 0 
81.0175 4.49115 0 
80.7908 5.35364 0 
81.3041 6.56993 0 
79.9527 4.80962 0 
81.2282 7.87594 0 
80.2901 8.78467 0 
80.542 9.32467 0 
81.129 7.44844 0 
79.4776 9.56611 0 
80.9542 10.5826 0 
80.9382 11.7227 0 
80.2132 11.3933 0 
80.1308 14.9254 0 
81.1593 15.5973 0 
80.8429 16.9732 0 
79.5815 16.4147 0 
81.1337 21.078 0 
80.9208 21.7283 0 
81.4835 20.7505 0 
81.3012 21.0845 0 
80.916 21.8274 0 
80.4757 24.1205 0 
79.4048 24.8653 0 
79.1272 23.8817 0 
80.4888 26.3943 0 
80.5477 25.0411 0 
80.0817 25.6446 0 
79.8087 26.7152 0 
80.9558 24.6521 0 
80.057 29.974 0 
80.1581 28.884 0 
80.3519 30.16 0 
79.9882 29.8565 0 
80.7482 30.6542 0 
79.5653 31.036 0 
81.2644 30.7669 0 
78.8628 33.698 0 
81.0684 33.4807 0 
81.0925 33.1717 0 
79.4941 32.7823 0 
81.6221 32.8483 0 
80.1532 32.6151 0 
80.3262 33.8474 0 
80.9158 32.4966 0 
80.3548 34.1269 0 
81.427 34.9876 0 
79.033 35.3305 0 
80.8732 36.5547 0 
79.8546 34.7525 0 
81.433 36.0781 0 
81.4272 34.8357 0 
80.5995 37.6761 0 
81.0363 38.1247 0 
80.5099 38.2956 0 
79.8161 38.2185 0 
80.4443 38.5686 0 
83.9782 2.12185 0 
82.6375 38.9997 0 
83.8356 0.554591 0 
82.2716 0.812274 0 
82.0002 0.87456 0 
81.6393 1.5329 0 
82.9666 2.17044 0 
83.6389 38.0838 0 
84.0902 0.647878 0 
83.2939 3.62844 0 
82.2276 3.63117 0 
82.5434 3.46253 0 
83.2162 2.81933 0 
83.5707 5.14448 0 
83.8471 3.74915 0 
82.3017 3.46334 0 
82.2689 4.25615 0 
83.7962 3.64027 0 
82.2731 3.49255 0 
84.1457 5.1654 0 
83.872 6.14222 0 
83.595 5.31818 0 
82.8107 5.55432 0 
83.892 5.50343 0 
83.2859 5.56612 0 
82.0908 6.37438 0 
83.0043 5.11883 0 
83.7014 4.65661 0 
83.7378 5.39532 0 
83.1659 5.50628 0 
83.5228 6.73898 0 
82.7048 9.06921 0 
82.0856 7.38847 0 
83.4742 9.02268 0 
83.3887 7.66763 0 
83.8792 8.64136 0 
83.1551 9.79103 0 
82.2215 9.09886 0 
82.1391 8.81613 0 
83.2021 8.90305 0 
83.9785 9.56208 0 
82.0393 10.0846 0 
82.6394 12.0966 0 
82.3777 11.7932 0 
82.3718 9.69618 0 
83.4655 11.6564 0 
83.1295 10.4983 0 
81.7178 11.6851 0 
83.1482 13.9474 0 
83.0192 14.5962 0 
84.0577 14.6286 0 
81.9906 13.8954 0 
83.1952 13.3475 0 
83.8998 17.2938 0 
83.0327 17.145 0 
83.4942 16.1482 0 
83.6942 15.4695 0 
83.4282 15.2942 0 
83.6409 16.9169 0 
83.565 19.0511 0 
82.5331 19.49 0 
83.1904 18.0765 0 
83.7178 19.0326 0 
82.199 21.2571 0 
81.9744 19.8235 0 
82.1148 22.3388 0 
82.5976 19.6984 0 
82.6747 21.1854 0 
82.0438 20.6355 0 
82.3127 24.1247 0 
81.9816 24.7428 0 
82.8864 24.0973 0 
82.6986 24.1677 0 
82.4508 26.7573 0 
82.8391 25.9377 0 
81.9034 27.5549 0 
83.314 25.4947 0 
83.0612 26.346 0 
83.9149 26.6907 0 
84.0765 25.6386 0 
81.955 27.2728 0 
81.9953 26.1577 0 
82.1604 25.2974 0 
81.7173 29.3044 0 
83.0015 28.595 0 
83.6421 28.399 0 
83.0396 27.9889 0 
82.6672 29.1365 0 
83.9651 28.629 0 
81.6541 27.4927 0 
83.5045 29.6797 0 
81.606 31.3394 0 
81.2616 30.866 0 
83.7132 29.3838 0 
83.2084 31.7518 0 
84.2138 29.3814 0 
83.6564 30.5195 0 
82.5732 31.263 0 
83.6255 30.9259 0 
82.8223 32.8049 0 
83.0892 33.102 0 
84.0311 32.9096 0 
83.8116 32.9095 0 
82.8003 32.7203 0 
83.007 32.8444 0 
83.7999 32.1614 0 
82.6467 33.7461 0 
84.2476 32.0437 0 
83.4533 32.284 0 
82.6021 34.1709 0 
82.6546 33.6191 0 
83.923 33.6903 0 
82.754 33.8146 0 
81.8554 32.7011 0 
82.9984 32.6421 0 
82.7723 33.9402 0 
82.3717 34.8638 0 
82.6777 35.2871 0 
82.4313 35.4814 0 
83.5867 36.8722 0 
82.1408 36.7416 0 
83.9233 37.4873 0 
81.7471 35.5833 0 
82.0185 36.0098 0 
83.0619 36.2129 0 
82.9838 38.014 0 
83.8236 37.3646 0 
83.0443 38.983 0 
81.7841 38.7368 0 
83.4301 38.5315 0 
82.6951 37.709 0 
83.4244 38.2513 0 
85.1776 0.194783 0 
84.3636 1.74765 0 
85.5635 0.46111 0 
85.4684 0.353822 0 
85.4521 0.537132 0 
84.9764 1.52118 0 
84.4565 1.89466 0 
85.5127 0.423361 0 
85.9017 37.5316 0 
86.0064 1.82358 0 
85.9285 39.5707 0 
85.3623 0.115401 0 
85.1071 0.0827078 0 
85.5523 1.67773 0 
84.6973 38.4975 0 
86.1643 1.5523 0 
85.0266 1.31234 0 
86.439 0.187366 0 
85.4688 4.41805 0 
86.0361 3.5189 0 
84.9683 4.47009 0 
84.0264 4.57679 0 
84.5849 2.33404 0 
84.3161 3.53903 0 
84.6982 3.47021 0 
83.9448 4.08245 0 
84.759 2.4029 0 
84.2207 4.10407 0 
84.4729 5.02368 0 
84.5957 2.65683 0 
85.7019 3.11467 0 
84.8822 5.87329 0 
84.3464 5.87016 0 
84.8068 6.54876 0 
85.1419 5.8516 0 
84.6331 6.72646 0 
84.1385 4.81151 0 
85.7065 6.87089 0 
84.8304 5.80386 0 
83.9932 5.07507 0 
84.5653 4.83396 0 
85.654 4.93519 0 
85.3474 7.05404 0 
85.3247 5.51494 0 
85.3371 7.05731 0 
86.3738 7.52113 0 
86.3141 6.1137 0 
86.5292 5.59791 0 
85.6628 8.91393 0 
85.8884 7.46666 0 
85.46 9.37854 0 
86.4071 7.58948 0 
84.8264 7.23748 0 
85.6169 7.81582 0 
86.6128 9.8462 0 
86.2361 9.04208 0 
84.941 7.66215 0 
86.3465 7.22176 0 
85.4742 8.06498 0 
84.633 9.00549 0 
84.9374 9.70279 0 
86.1624 10.6285 0 
85.0887 10.832 0 
84.6787 10.2516 0 
85.0427 11.434 0 
86.4255 10.5651 0 
85.0835 11.0781 0 
84.8199 13.9735 0 
85.8554 13.1454 0 
86.4983 14.9366 0 
86.1613 14.2325 0 
86.5246 12.5088 0 
86.4347 12.6584 0 
86.0287 13.1383 0 
86.1433 12.8949 0 
84.2215 14.7234 0 
86.4667 12.5495 0 
84.6526 13.8983 0 
86.5506 13.4016 0 
85.3222 14.3128 0 
84.9296 12.9835 0 
86.2455 16.1907 0 
86.1102 15.1721 0 
86.0734 16.9651 0 
84.965 15.3157 0 
84.3768 17.2574 0 
85.931 16.918 0 
86.1066 16.7172 0 
84.0626 15.6463 0 
85.456 16.5408 0 
86 16.7881 0 
84.7796 16.8521 0 
86.168 16.9446 0 
85.0878 18.7207 0 
86.1737 16.8362 0 
85.85 18.9239 0 
85.4509 19.908 0 
86.1449 19.9683 0 
86.4243 18.166 0 
84.1059 18.7676 0 
84.3055 18.654 0 
84.7634 18.2174 0 
84.8781 18.8785 0 
84.3162 19.8268 0 
85.126 20.6402 0 
85.1775 21.1738 0 
85.3437 19.1857 0 
85.2079 19.1601 0 
84.8614 20.5377 0 
84.7944 20.6997 0 
84.471 21.4636 0 
85.2823 21.2868 0 
84.9848 21.8776 0 
85.6435 21.2723 0 
84.7791 20.8141 0 
85.9247 21.4418 0 
85.1087 19.6735 0 
86.4474 21.0948 0 
85.6113 23.5993 0 
86.4753 22.9418 0 
85.4434 23.2883 0 
85.0552 21.9032 0 
86.1921 22.9482 0 
85.7524 22.9892 0 
85.614 22.9579 0 
85.298 24.6357 0 
84.7247 23.2366 0 
86.034 22.789 0 
85.964 22.6592 0 
84.2471 23.5399 0 
84.2393 22.5612 0 
86.6405 24.0283 0 
84.0309 26.2683 0 
84.2084 25.3378 0 
85.6873 26.7234 0 
86.4487 25.0962 0 
85.3615 26.4831 0 
84.0615 26.0625 0 
85.8178 24.7463 0 
85.9819 25.4952 0 
84.7533 27.3238 0 
85.3699 25.6051 0 
85.2204 26.3511 0 
86.2734 27.0809 0 
84.6733 24.3908 0 
84.8703 28.9999 0 
84.6262 29.1329 0 
84.6824 27.2084 0 
84.3474 29.2128 0 
85.366 28.6248 0 
85.0113 27.8046 0 
84.7923 28.7641 0 
86.3317 28.2483 0 
86.032 27.2524 0 
85.1148 27.6438 0 
84.4818 28.0275 0 
84.4142 27.4414 0 
85.0232 27.9435 0 
85.9899 29.7567 0 
84.3512 27.84 0 
86.3759 30.4839 0 
83.9175 29.7208 0 
86.0593 31.6146 0 
86.4417 30.1316 0 
84.1674 29.5702 0 
85.6442 30.9213 0 
86.1657 31.2935 0 
85.7326 31.0418 0 
86.4556 31.6801 0 
84.7469 31.9781 0 
84.6681 31.6738 0 
86.4309 31.9673 0 
84.8277 31.6428 0 
85.0663 30.2111 0 
84.6556 30.058 0 
85.943 30.5546 0 
85.7052 30.6802 0 
84.9406 31.2505 0 
84.9104 29.406 0 
86.3441 30.504 0 
86.0766 29.2821 0 
86.5481 30.1776 0 
85.2323 31.9511 0 
86.5271 32.8475 0 
85.2108 32.0973 0 
85.5117 34.4725 0 
86.0914 32.8544 0 
86.0654 33.9538 0 
86.2237 31.9944 0 
86.0261 33.3387 0 
86.5724 34.0352 0 
86.5675 32.175 0 
86.5488 33.875 0 
85.3368 33.1909 0 
84.6711 32.8228 0 
85.3176 34.9857 0 
86.4501 33.4483 0 
85.6528 34.3235 0 
85.2677 33.9541 0 
86.0221 32.7651 0 
85.9992 33.0712 0 
85.1086 33.0762 0 
85.0348 32.5766 0 
86.4542 33.5906 0 
84.4308 34.3236 0 
85.6507 32.5148 0 
84.4853 34.0197 0 
85.0991 36.9327 0 
84.7293 35.6712 0 
86.1155 34.5318 0 
85.9446 35.8461 0 
85.8336 36.7919 0 
85.3477 35.1097 0 
84.2071 36.7322 0 
84.7512 36.8989 0 
85.5013 36.1805 0 
84.0418 35.1323 0 
85.0509 36.7785 0 
85.6473 36.2527 0 
84.7942 35.2031 0 
85.597 36.6284 0 
86.4322 36.3252 0 
85.9058 35.5084 0 
85.4497 37.1926 0 
85.3035 37.4654 0 
85.6037 38.2031 0 
85.4453 37.4662 0 
86.1186 37.8785 0 
86.6015 37.158 0 
85.8391 38.4849 0 
86.1995 37.4416 0 
85.0632 37.0388 0 
84.9606 38.9836 0 
87.3692 0.1072 0 
87.1575 0.140119 0 
87.203 38.7039 0 
88.3259 1.09783 0 
87.8988 1.19731 0 
87.2151 0.266345 0 
88.7042 0.0850948 0 
88.4255 1.6451 0 
86.9554 1.85825 0 
88.6194 38.9182 0 
87.0912 38.3998 0 
88.3327 0.0489576 0 
88.6285 0.697452 0 
88.9684 39.219 0 
88.4141 1.27148 0 
88.7147 0.620971 0 
87.845 1.3781 0 
87.4349 1.95391 0 
87.0517 1.82221 0 
88.9875 1.08297 0 
87.8525 1.71774 0 
87.8569 0.415821 0 
86.5788 3.72795 0 
87.9796 4.55157 0 
88.2155 3.85078 0 
87.0147 2.43907 0 
88.806 1.95312 0 
88.2999 2.86274 0 
89.0438 3.91714 0 
88.7816 2.59651 0 
88.3938 2.47497 0 
87.2403 2.48779 0 
88.4194 4.37692 0 
87.7036 3.61001 0 
87.272 3.85008 0 
88.6988 2.19648 0 
89 2.41011 0 
86.7949 2.55272 0 
87.1951 2.99356 0 
89.0349 5.36079 0 
88.231 6.61733 0 
87.6802 5.17282 0 
88.1329 5.73176 0 
88.8862 6.80547 0 
88.9378 6.56525 0 
87.2278 5.67534 0 
87.0161 6.804 0 
88.4572 5.34746 0 
88.9461 5.46915 0 
[...]
      <PointData Vectors="vector">
        <DataArray type="Float32" Name="Velocity" NumberOfComponents="3" format="ascii">

-247.14 -185.82 0 
-217.522 -134.619 0 
-231.477 -103.832 0 
-204.114 -67.0263 0 
-180.913 -28.5737 0 
-198.753 -7.26016 0 
-207.349 -117.049 0 
-213.06 -121.914 0 
-222.551 -80.1046 0 
-175.602 69.2146 0 
-211.789 -96.2713 0 
-177.869 -66.2933 0 
-204.485 -140.813 0 
-175.898 36.9223 0 
-222.723 -121.387 0 
-215.793 -91.3294 0 
-184.939 -123.89 0 
-196.933 -77.2932 0 
-143.996 95.3868 0 
-198.325 -82.1029 0 
-174.81 84.2536 0 
-184.574 -50.7042 0 
-154.697 -52.2625 0 
-179.365 -46.5544 0 
-144.943 101.269 0 
-174.965 -42.3547 0 
-186.566 -48.7078 0 
-131.129 115.212 0 
-140.304 100.366 0 
-174.702 -36.278 0 
-197.885 -14.728 0 
-175.449 10.8143 0 
-176.247 4.72882 0 
-171.485 -5.50873 0 
-204.072 -135.353 0 
-209.862 -138.099 0 
-181.024 -145.389 0 
-171.101 -137.924 0 
-185.969 -162.577 0 
-177.671 -134.439 0 
-194.645 -122.704 0 
-177.154 68.3799 0 
-250.235 -132.835 0 
-184.913 -123.088 0 
-215.742 -136.807 0 
-223.991 -114.691 0 
-200.345 -82.9248 0 
-191.063 -91.3021 0 
-219.643 -91.1208 0 
-202.103 -82.0481 0 
-185.207 -78.517 0 
-237.791 -89.9284 0 
-169.038 -105.164 0 
-171.05 -99.6033 0 
-158.63 -72.4553 0 
-199.754 -102.432 0 
-235.727 -90.1992 0 
-166.576 68.1287 0 
-193.376 -58.6035 0 
-208.841 -103.845 0 
-141.654 95.9133 0 
-174.901 -84.5188 0 
-199.986 -89.8387 0 
-229.826 -74.0405 0 
-182.993 -41.5056 0 
-203.996 -85.8666 0 
-137.469 -53.63 0 
-211.618 -57.3782 0 
-196.885 -44.5796 0 
-208.132 -50.0563 0 
-214.839 -62.4505 0 
-228.889 -79.815 0 
-141.718 97.5757 0 
-172.021 -55.9751 0 
-192.1 -55.6071 0 
-202.24 -52.3703 0 
-227.146 -14.601 0 
-185.968 -67.0641 0 
-130.207 73.1735 0 
-196.206 -3.63374 0 
-192.066 -5.49916 0 
-201.429 -42.3608 0 
-180.415 -34.8561 0 
-169.915 -3.75139 0 
-146.201 -17.2662 0 
-190.258 -158.288 0 
-225.474 -154.064 0 
-255.559 -158.977 0 
-168.145 10.7564 0 
-146.939 24.9585 0 
-183.388 -158.057 0 
-164.177 4.02411 0 
-237.543 -191.581 0 
-176.492 -131.76 0 
-216.672 -175.529 0 
-238.792 -175.116 0 
-135.768 12.387 0 
-186.985 -159.677 0 
-248.918 -137.466 0 
-230.958 -119.362 0 
-242.596 -141.133 0 
-186.354 -123.186 0 
-178.103 -125.204 0 
-204.28 -2.73904 0 
-216.964 -147.627 0 
-195.128 -155.345 0 
-245.727 -95.4009 0 
-123.594 17.1381 0 
-174.284 19.7046 0 
-203.073 -164.421 0 
-249.648 -100.703 0 
-239.175 -83.8542 0 
-258.165 -129.91 0 
-175.925 -130.652 0 
-178.2 -86.0372 0 
-215.232 -133.858 0 
-211.914 -57.6884 0 
-245.902 -89.1594 0 
-209.93 45.9237 0 
-203.524 -89.6549 0 
-176.119 -97.4265 0 
-194.974 -100.004 0 
-206.405 -149.5 0 
-166.901 -102.499 0 
-178.608 -157.292 0 
-214.041 -82.188 0 
-180.533 -50.6228 0 
-171.908 -93.2501 0 
-179.305 -125.926 0 
-174.221 -101.041 0 
-198.59 -116.751 0 
-156.399 56.0253 0 
-178.26 -64.3179 0 
-166.643 -34.7184 0 
-155.678 -57.6432 0 
-170.193 -52.1896 0 
-126.155 71.5576 0 
-194.32 -111.626 0 
-129.98 90.27 0 
-198.105 -57.1067 0 
-214.007 -129.255 0 
-154.848 98.62 0 
-174.151 -68.2568 0 
-186.695 -98.0297 0 
-165.987 -58.8767 0 
-159.933 -89.0971 0 
-232.802 -132.962 0 
-193.332 -102.201 0 
-198.037 -56.4873 0 
-179.893 -52.6172 0 
-189.965 -97.7316 0 
-203.451 -62.524 0 
-220.8 -72.4423 0 
-200.295 -87.9687 0 
-168.914 -92.5603 0 
-213.811 -80.7158 0 
-222.012 -116.186 0 
-227.701 -108.281 0 
-205.096 -110.68 0 
-191.447 -97.1589 0 
-160.846 -93.294 0 
-173.295 -55.8646 0 
-168.179 -51.1972 0 
-205.09 -66.55 0 
-195.329 -80.6624 0 
-230.852 -86.8923 0 
-154.504 84.4687 0 
-217.543 -60.1513 0 
-209.304 -84.6475 0 
-163.55 60.4958 0 
-193.119 -80.1855 0 
-205.602 -82.4037 0 
-185.787 -81.0864 0 
-230.545 -44.3919 0 
-163.718 78.0888 0 
-244.56 -96.2186 0 
-182.538 -40.5987 0 
-123.059 101.945 0 
-197.078 -58.8571 0 
-199.02 -61.6643 0 
-183.672 -81.8636 0 
-160.577 -54.9231 0 
-171.853 -47.0194 0 
-203.168 -60.0707 0 
-203.213 -83.3683 0 
-117.105 76.8607 0 
-174.293 -81.605 0 
-184.544 -75.7719 0 
-168.352 -40.1647 0 
-158.997 -11.6694 0 
-196.483 -60.5639 0 
-199.601 -57.6248 0 
-205.987 -12.1794 0 
-188.338 -31.18 0 
-176.273 2.23882 0 
-170.599 138.43 0 
-213.199 -53.8059 0 
-140.742 118.186 0 
-188.141 -35.6381 0 
-186.927 -12.4868 0 
-167.636 -50.1833 0 
-196.531 30.1726 0 
-197.061 -1.93458 0 
-228.129 19.9828 0 
-172.464 -31.9145 0 
-198.033 19.4038 0 
-191.608 -22.6614 0 
-210.348 0.960788 0 
-185.583 -4.76829 0 
-179.608 -12.449 0 
-182.217 3.80158 0 
-224.309 -208.098 0 
-134.59 -156.059 0 
-134.611 -1.26414 0 
-185.143 -178.362 0 
-191.427 -30.8122 0 
-174.204 -21.5042 0 
-146.637 20.3814 0 
-144.402 -17.3088 0 
-165.643 -44.1712 0 
-212.976 2.62977 0 
-172.297 -168.989 0 
-195.822 -205.688 0 
-190.123 -166.878 0 
-167.291 22.531 0 
-169.298 -2.09585 0 
-179.33 -185.615 0 
-143.168 -145.854 0 
-195.336 -165.963 0 
-177.492 6.72553 0 
-225.405 -172.264 0 
-189.588 -133.264 0 
-163.541 -168.492 0 
-235.21 -133.675 0 
-210.575 -125.652 0 
-211.242 -134.727 0 
-232.767 -110.093 0 
-197.321 -161.873 0 
-201.249 -175.416 0 
-168.801 -161.022 0 
-154.082 28.4563 0 
-204.168 -147.553 0 
-118.375 31.5065 0 
-148.469 24.423 0 
-227.42 -117.821 0 
-218.279 -136.487 0 
-224.14 -148.693 0 
-221.627 -97.4976 0 
-237.872 -154.724 0 
-233.462 -130.809 0 
-246.985 -146.247 0 
-199.497 -160.394 0 
-155.173 16.0161 0 
-186.337 -141.184 0 
-151.578 9.95741 0 
-188.671 22.35 0 
-180.374 -108.466 0 
-234.283 -154.794 0 
-131.777 -152.137 0 
-198.441 -163.383 0 
-178.966 8.76925 0 
-194.704 36.8862 0 
-209.451 -146.516 0 
-179.987 -30.1436 0 
-179.022 -138.94 0 
-195.497 -124.671 0 
-218.955 -115.129 0 
-139.453 -118.498 0 
-199.134 -121.826 0 
-160.688 -135.141 0 
-160.579 -98.0055 0 
-198.941 -111.559 0 
-171.878 -138.008 0 
-134.553 23.2464 0 
-168.498 -136.295 0 
-156.95 -136.337 0 
-150.384 33.7213 0 
-185.942 10.4268 0 
-203.214 -99.1688 0 
-180.853 -162.764 0 
-153.292 37.2466 0 
-202.301 -113.537 0 
-197.136 22.5026 0 
-192.397 -163.842 0 
-168.928 -132.621 0 
-166.63 -102.686 0 
-169.054 -107.8 0 
-162.279 -99.9779 0 
-175.414 -131.57 0 
-144.413 -66.6588 0 
-207.697 -74.0733 0 
-172.147 -80.5773 0 
-167.89 -85.9138 0 
-164.07 93.6399 0 
-178.071 -121.552 0 
-152.434 58.6414 0 
-195.383 -95.0747 0 
-199.728 -93.0045 0 
-194.121 -116.411 0 
-186.694 -86.8178 0 
-214.676 -84.9645 0 
-164.472 -79.407 0 
-191.421 -114.906 0 
-193.083 -112.441 0 
-191.26 -77.448 0 
-158.932 64.013 0 
-213.479 -100.911 0 
-221.659 -109.157 0 
-220.157 -110.353 0 
-163.619 -104.501 0 
-265.187 -117.081 0 
-189.203 -112.16 0 
-204.986 -67.7127 0 
-160.246 -104.341 0 
-198.004 -91.8854 0 
-188.425 -54.2114 0 
-204.648 -80.239 0 
-214.518 -100.757 0 
-153.696 -58.2554 0 
-162.823 -112.764 0 
-131.322 52.7147 0 
-150.552 -67.9782 0 
-148.746 -105.431 0 
-166.048 -91.0374 0 
-177.317 -123.376 0 
-188.787 -104.91 0 
-238.292 -83.8948 0 
-210.366 -92.6105 0 
-220.413 -56.1622 0 
-135.896 -105.036 0 
-196.639 -97.1068 0 
-167.537 -76.0591 0 
-175.133 -96.7378 0 
-169.633 -77.8405 0 
-170.661 -88.7042 0 
-180.087 -52.6682 0 
-139.679 -55.4098 0 
-183.991 -88.4779 0 
-200.183 -41.5849 0 
-172.227 -54.4594 0 
-143.543 -44.115 0 
-193.102 -44.7924 0 
-150.42 -74.0291 0 
-199.352 -65.8845 0 
-200.751 -52.4533 0 
-185.043 -67.1141 0 
-163.5 -62.9938 0 
-168.989 -90.304 0 
-188.123 -16.5417 0 
-163.708 -81.99 0 
-154.402 -77.3135 0 
-209.655 -68.322 0 
-196.461 -53.6008 0 
-201.625 -62.7011 0 
-144.795 -74.2194 0 
-130.022 98.6644 0 
-208.632 -32.6655 0 
-146.26 92.4298 0 
-149.235 -74.7434 0 
-199.192 -46.13 0 
-159.007 -41.2068 0 
-165.375 -52.5898 0 
-182.414 111.269 0 
-208.176 21.8676 0 
-204.678 -18.2318 0 
-170.615 -19.7803 0 
-230.353 -56.9462 0 
-162.255 -77.5688 0 
-174.17 -92.5694 0 
-203.955 -21.0601 0 
-191.271 -40.9811 0 
-145.748 -77.8131 0 
-179.485 13.9108 0 
-186.159 -33.4075 0 
-207.75 -48.8329 0 
-132.699 105.036 0 
-191.712 -62.5312 0 
-166.585 -39.7591 0 
-188.751 -31.5691 0 
-159.621 -44.4318 0 
-202.485 -27.0194 0 
-197.122 -47.5415 0 
-201.746 -73.409 0 
-158.743 118.534 0 
-144.202 -55.0757 0 
-164.146 -36.505 0 
-183.639 -54.094 0 
-213.574 -68.7488 0 
-143.032 -25.3062 0 
-173.04 -52.0545 0 
-185.635 -61.7959 0 
-179.606 18.6002 0 
-196.224 -199.047 0 
-251.996 -7.06804 0 
-196.805 2.27458 0 
-192.251 -21.1285 0 
-198.88 -205.917 0 
-215.728 -19.8264 0 
-190.556 -44.499 0 
-182.186 0.401647 0 
-181.899 -6.77713 0 
-222.92 -15.1131 0 
-208.635 -5.92687 0 
-197.733 -26.1308 0 
-201.849 -174.368 0 
-201.893 -136.292 0 
-189.7 -185.079 0 
-166.955 -201.461 0 
-195.322 11.1999 0 
-147.386 17.6435 0 
-140.544 -3.91773 0 
-132.209 12.3567 0 
-179.289 14.5589 0 
-167.08 -178.822 0 
-230.369 -183.636 0 
-201.716 -154.309 0 
-157.488 -166.787 0 
-205.056 -143.349 0 
-234.225 -148.18 0 
-151.169 -195.446 0 
-210.321 29.1689 0 
-124.434 -130.185 0 
-196.057 -206.406 0 
-167.804 -171.744 0 
-176.46 16.3199 0 
-188.791 -187.497 0 
-192.267 11.8035 0 
-183.891 -174.662 0 
-181.461 -178.637 0 
-209.042 -150.868 0 
-198.631 -147.498 0 
-203.865 -161.611 0 
-206.928 -175.59 0 
-203.235 -134.426 0 
-192.461 -185.654 0 
-180.036 -140.937 0 
-205.79 -192.363 0 
-161.975 16.7185 0 
-92.6446 15.986 0 
-160.387 58.8686 0 
-143.51 0.521684 0 
-127.85 11.4489 0 
-129.834 -169.969 0 
-180.5 -192.056 0 
-140.203 62.8026 0 
-164.734 -165.409 0 
-176.359 -137.477 0 
-214.48 -143.618 0 
-171.534 -150.462 0 
-234.88 -121.611 0 
-184.728 -156.221 0 
-188.706 -193.081 0 
-145.025 -146.888 0 
-154.186 -23.4402 0 
-179.976 -167.197 0 
-175.171 -182.011 0 
-203.705 -167.28 0 
-127.112 21.5831 0 
-183.568 -89.6117 0 
-215.397 -121.416 0 
-196.774 -121.078 0 
-211.387 -149.403 0 
-173.798 -146.057 0 
-180.864 -166.6 0 
-197.696 -136.265 0 
-175.629 -170.74 0 
-188.115 -155.88 0 
-135.312 34.4663 0 
-172.159 13.3379 0 
-200.018 -161.537 0 
-177.189 -146.748 0 
-210.324 -149.327 0 
-156.033 -163.513 0 
-218.046 -123.886 0 
-230.009 -107.097 0 
-228.15 -136.764 0 
-170.638 -114.558 0 
-216.812 -152.614 0 
-216.865 -125.935 0 
-212.286 -115.859 0 
-236.182 -147.924 0 
-198 -97.9775 0 
-194.825 -106.485 0 
-235.158 -140.063 0 
-233.486 -117.997 0 
-172.044 -107.899 0 
-200.489 -157.726 0 
-113.477 47.5271 0 
-190.76 -146.419 0 
-193.715 -108.561 0 
-166.531 -132.543 0 
-171.539 16.3287 0 
-179.06 -136.836 0 
-207.925 -121.392 0 
-141.947 -126.392 0 
-213.932 -163.139 0 
-165.385 -141.348 0 
-188.089 -126.126 0 
-142.327 40.0739 0 
-146.317 10.9516 0 
-210.943 -158.785 0 
-141.71 -1.28167 0 
-203.144 -105.778 0 
-183.798 -143.347 0 
-174.366 -87.9777 0 
-210.594 -120.576 0 
-199.587 -108.261 0 
-207.815 -102.557 0 
-165.94 -162.606 0 
-176.709 35.5277 0 
-157.991 -124.325 0 
-161.741 -146.542 0 
-200.036 -103.704 0 
-157.463 -118.643 0 
-196.702 -111.351 0 
-191.411 -159.988 0 
-183.538 -142.124 0 
-189.324 -140.231 0 
-195.47 -106.84 0 
-168.453 -153.569 0 
-169.271 38.223 0 
-149.325 -115.908 0 
-198.151 -121.404 0 
-175.162 -91.6841 0 
-192.879 -129.651 0 
-206.891 -132.986 0 
-152.291 -116.884 0 
-198.075 -102.261 0 
-230.32 -124.912 0 
-199.81 -130.603 0 
-210.517 -122.031 0 
-159.522 -135.497 0 
-206.162 -78.2128 0 
-206.209 -82.4137 0 
-244.734 -60.0423 0 
-231.373 -74.9884 0 
-217.566 -99.3939 0 
-220.137 -81.5946 0 
-161.253 -96.3448 0 
-198.338 -121.561 0 
-171.279 -110.948 0 
-175.196 -91.9547 0 
-165.463 -96.9395 0 
-164.126 -90.1615 0 
-207.37 -71.1459 0 
-170.185 -96.0609 0 
-148.451 44.8051 0 
-169.06 47.7995 0 
-192.835 -118.874 0 
-182.837 -122.217 0 
-159.725 -109.57 0 
-141.807 29.1976 0 
-192.972 -124.549 0 
-213.272 -98.2861 0 
-211.617 -69.9167 0 
-162.267 -106.894 0 
-154.424 -128.842 0 
-189.944 -99.0785 0 
-206.836 -80.8308 0 
-211.334 -83.8841 0 
-205.981 -104.079 0 
-183.484 -85.5183 0 
-162.021 -105.5 0 
-183.794 -86.1532 0 
-181.461 -134.102 0 
-179.041 -101.303 0 
-165.483 -136.614 0 
-192.961 -74.6641 0 
-197.162 -79.7475 0 
-140.828 -97.4628 0 
-200.448 -93.7215 0 
-161.356 -89.119 0 
-185.285 -104.219 0 
-162.57 -121.835 0 
-179.855 -71.4679 0 
-130.528 -122.205 0 
-162.195 -117.504 0 
-153.253 -103.796 0 
-178.247 -105.931 0 
-182.953 -109.682 0 
-188.973 -100.366 0 
-134.744 -105.936 0 
-175.762 -120.525 0 
-157.26 -120.175 0 
-229.559 -79.8853 0 
-119.152 -84.5965 0 
-164.184 -90.368 0 
-138.291 -94.3434 0 
-202.263 -78.2567 0 
-154.223 -118.775 0 
-121.288 53.9691 0 
-163.324 -126.028 0 
-197.244 -94.9113 0 
-189.148 -87.3733 0 
-211.753 -120.067 0 
-144.455 -59.9837 0 
-192.682 -106.188 0 
-159.879 -107.108 0 
-205.324 -70.4283 0 
-159.91 -57.2147 0 
-193.652 -82.4018 0 
-212.381 -74.9464 0 
-158.612 -95.5179 0 
-180.252 -66.2813 0 
-186.942 -116.094 0 
-169.268 -99.9289 0 
-187.114 -63.3866 0 
-198.332 -82.2791 0 
-149.829 -41.8758 0 
-140.148 -102.427 0 
-167.852 -24.9804 0 
-190.275 -74.253 0 
-154.02 -85.1827 0 
-158.902 -25.7064 0 
-161.865 -106.207 0 
-154.229 -46.2653 0 
-174.818 -98.1804 0 
-185.583 -79.6997 0 
-205.376 -96.0989 0 
-181.109 -69.3097 0 
-154.752 -111.928 0 
-154.274 -73.1798 0 
-166.758 -70.8863 0 
-163.734 -85.2388 0 
-170.995 -49.7699 0 
-187.32 -101.043 0 
-150.242 -79.4932 0 
-205.882 -54.4688 0 
-139.277 -88.012 0 
-157.035 -50.2535 0 
-235.971 -74.3057 0 
-139.945 81.6106 0 
-156.051 -55.2499 0 
-161.806 -48.776 0 
-185.066 73.1563 0 
-160.471 -69.3744 0 
-213.194 -94.616 0 
-163.332 -62.6584 0 
-177.724 -90.4745 0 
-193.025 -71.0065 0 
-104.863 111.575 0 
-197.78 -39.8594 0 
-169.079 -84.1913 0 
-188.201 -208.745 0 
-214.493 -36.6783 0 
-226.965 -65.7245 0 
-151.195 -59.5003 0 
-192.524 -66.658 0 
-154.593 -31.8809 0 
-191.36 -71.5214 0 
-136.083 -66.6348 0 
-140.506 -61.9195 0 
-164.404 -30.3138 0 
-190.02 -70.1111 0 
-180.848 33.5183 0 
-164.449 -49.5965 0 
-191.266 -43.9511 0 
-178.477 -55.3997 0 
-162.305 107.828 0 
-137.66 -77.1961 0 
-181.663 -19.0012 0 
-163.764 -29.4371 0 
-143.336 -49.4068 0 
-149.432 -54.2795 0 
-191.525 -65.7781 0 
-161.995 -36.0532 0 
-192.941 -43.2226 0 
-199.16 -15.5593 0 
-179.58 -47.2321 0 
-186.829 -45.6924 0 
-192.264 -55.0618 0 
-148.162 -50.3151 0 
-150.778 117.39 0 
-176.795 -52.3962 0 
-169.968 -37.0856 0 
-196.842 -26.6405 0 
-180.109 -57.274 0 
-177.387 -150.825 0 
-187.835 -188.308 0 
-173.399 18.3814 0 
-151.987 -4.79863 0 
-165.275 -19.3469 0 
-185.358 -60.2549 0 
-171.825 27.7022 0 
-162.048 5.7288 0 
-157.802 13.8037 0 
-166.337 -60.0876 0 
-157.649 45.4939 0 
-182.066 5.65729 0 
-147.315 -11.6564 0 
-186.854 22.6098 0 
-171.798 -73.284 0 
-168.022 -20.0026 0 
-128.091 -40.7082 0 
-166.994 13.9976 0 
-170.996 -1.17826 0 
-179.611 -15.4294 0 
-198.843 -145.873 0 
-168.333 7.38828 0 
-187.454 -8.06876 0 
-156.138 -23.8495 0 
-193.414 -26.1768 0 
-202.066 -215.653 0 
-177.026 10.7487 0 
-199.518 -244.662 0 
-192.761 -38.8899 0 
-142.123 -175.616 0 
-168.939 -152.398 0 
-142.24 -40.5405 0 
-144.748 38.8717 0 
-150.483 2.93292 0 
-140.547 -22.6746 0 
-159.023 -30.0292 0 
-155.712 -184.035 0 
-170.358 24.1504 0 
-145.239 -185.645 0 
-182.904 -21.0956 0 
-185.068 -160.507 0 
-225.042 -192.339 0 
-199.58 -199.714 0 
-167.687 -153.498 0 
-230.714 -147.663 0 
-192.553 -178.986 0 
-166.829 -164.966 0 
-152.338 -201.2 0 
-133.452 -32.0716 0 
-197.179 -199.527 0 
-165.087 -190.586 0 
-214.747 -175.666 0 
-180.208 -165.291 0 
-173.408 -166.075 0 
-201.033 -164.277 0 
-158.903 1.37011 0 
-215.505 -181.454 0 
-170.894 -27.8055 0 
-213.234 -156.849 0 
-146.352 -200.117 0 
-197.16 -188.037 0 
-166.841 -198.418 0 
-214.564 -117.905 0 
-206.929 -161.208 0 
-205.772 -183.594 0 
-157.828 -188.494 0 
-156.074 -186.934 0 
-114.564 0.956115 0 
-125.755 -149.061 0 
-165.651 -38.9714 0 
-166.15 -163.785 0 
-209.272 -144.98 0 
-196.101 27.5154 0 
-152.649 -164.667 0 
-155.321 -201.585 0 
-198.508 -148.633 0 
-183.615 -175.513 0 
-133.572 -177.175 0 
-167.298 -184.721 0 
-155.751 -151.081 0 
-203.932 -161.521 0 
-228.281 -151.691 0 
-199.562 -151.453 0 
-178.513 -164.481 0 
-182.341 -154.894 0 
-207.681 -134.797 0 
-185.139 -141.802 0 
-212.809 -167.825 0 
-186.861 -163.277 0 
-183.384 -157.623 0 
-164.372 -138.714 0 
-203.959 -118.452 0 
-201.637 -156.508 0 
-189.481 -190.293 0 
-167.771 -160.189 0 
-149.684 -145.075 0 
-177.721 -127.988 0 
-193.307 -154.761 0 
-175.093 -145.588 0 
-183.857 -190.214 0 
-149.004 -35.67 0 
-163.81 -146.101 0 
-171.28 -179.459 0 
-165.276 -163.251 0 
-161.492 -157.399 0 
-122.856 23.2495 0 
-176.7 -162.785 0 
-190.179 -160.992 0 
-197.514 -155.124 0 
-185.11 -161.396 0 
-186.425 -156.282 0 
-168.181 -178.877 0 
-190.599 -196.29 0 
-127.009 -155.213 0 
-180.047 -152.41 0 
-172.266 -171.387 0 
-170.987 -154.463 0 
-150.298 -131.691 0 
-179.863 -139.947 0 
-215.992 -154.844 0 
-206.028 -143.4 0 
-167.79 -154.563 0 
-171.151 -144.122 0 
-206.063 -128.701 0 
-176.193 -157.183 0 
-172.8 -106.5 0 
-185.471 -150.961 0 
-95.8554 11.4168 0 
-170.31 -125.607 0 
-162.133 -165.947 0 
-146.927 22.1519 0 
-175.647 -144.164 0 
-140.316 -40.363 0 
-174.218 -164.17 0 
-195.6 -128.477 0 
-177.311 -116.589 0 
-149.603 -142.578 0 
-224.96 -141.28 0 
-138.173 -114.598 0 
-207.194 -123.605 0 
-158.531 -136.524 0 
-165.105 -140.445 0 
-194.274 -151.195 0 
-168.391 39.2613 0 
-166.444 -141.964 0 
-176.127 -132.042 0 
-219.156 -180.428 0 
-178.574 -145.295 0 
-188.003 -113.735 0 
-165.933 -106.825 0 
-201.025 -124.276 0 
-176.838 -148.841 0 
-171.554 -139.332 0 
-202.962 -167.726 0 
-163.32 -135.08 0 
-227.667 -148.073 0 
-187.16 -134.467 0 
-179.613 -144.995 0 
-173.032 -160.741 0 
-149.68 -161.864 0 
-158.938 -121.93 0 
-158.966 -132.332 0 
-170.893 -111.542 0 
-110.13 -135.287 0 
-193.258 -122.186 0 
-138.787 -6.70158 0 
-135.917 -14.4672 0 
-160.723 -136.953 0 
-191.792 -105.582 0 
-172.125 -166.121 0 
-199.322 -106.922 0 
-213.54 -136.755 0 
-179.364 -107.341 0 
-171.244 -119.572 0 
-218.311 -121.398 0 
-182.521 -121.92 0 
-197.402 -133.075 0 
-169.663 -147.225 0 
-196.607 -104.339 0 
-190.14 -132.033 0 
-170.148 -110.708 0 
-187.646 -161.196 0 
-127.811 45.3458 0 
-194.54 -129.608 0 
-160.102 -117.19 0 
-190.726 -167.701 0 
-153.606 30.9541 0 
-194.264 -149.385 0 
-211.595 -142.21 0 
-210.42 -144.769 0 
-183.243 -144.941 0 
-146.953 -136.688 0 
-156.726 -131.304 0 
-190.128 -162.52 0 
-210.249 -127.578 0 
-204.246 -166.366 0 
-137.369 16.6069 0 
-156.021 -135.386 0 
-168.607 -129.299 0 
-179.716 -124.08 0 
-253.605 -121.64 0 
-189.628 -124.103 0 
-180.663 -77.0404 0 
-171.669 -103.949 0 
-205.383 -106.742 0 
-171.202 -122.499 0 
-202.053 -109.947 0 
-195.743 -97.8142 0 
-204.984 -91.2624 0 
-188.102 -86.2951 0 
-167.855 -102.155 0 
-178.902 -116.874 0 
-159.442 -114.563 0 
-178.382 -108.408 0 
-171.643 -99.9837 0 
-196.862 -102.123 0 
-156.673 -61.0933 0 
-186 -135.566 0 
-142.433 -120.244 0 
-160.432 -112.654 0 
-170.213 -107.578 0 
-162.298 -113.247 0 
-193.299 -105.748 0 
-170.42 -98.6717 0 
-188.634 -96.2972 0 
-203.374 -99.5538 0 
-184.272 -98.7935 0 
-189.648 -113.76 0 
-192.315 -91.618 0 
-179.982 -125.415 0 
-170.587 -75.332 0 
-185.42 -94.2655 0 
-210.242 -47.7399 0 
-202.202 -91.7049 0 
-131.319 -107.01 0 
-203.903 -108.373 0 
-139.063 54.2392 0 
-174.324 -123.824 0 
-152.429 -79.0447 0 
-145.188 -112.417 0 
-174.246 -80.4323 0 
-182.532 -92.5401 0 
-175.684 -91.8233 0 
-149.346 -92.1114 0 
-202.532 -99.2222 0 
-184.677 -94.5273 0 
-145.967 -108.575 0 
-202.292 -88.4151 0 
-177.831 -112.247 0 
-204.308 -104.778 0 
-163.031 -106.046 0 
-132.379 -73.8098 0 
-142.736 -80.467 0 
-106.855 84.4468 0 
-156.888 -121.777 0 
-137.514 -77.7735 0 
-147.801 -134.467 0 
-121.467 -92.4962 0 
-190.316 -105.102 0 
-180.114 -78.0172 0 
-194.287 -141.569 0 
-168.196 -136.735 0 
-145.741 -95.4366 0 
-180.231 -108.857 0 
-162.544 -117.663 0 
-157.583 -97.5265 0 
-137.471 -104.925 0 
-161.397 -87.9696 0 
-144.421 -117.978 0 
-175.231 -99.8588 0 
-141.819 -143.029 0 
-161.535 -108.49 0 
-217.287 -109.963 0 
-174.964 -104.615 0 
-161.708 -80.9109 0 
-201.33 -104.742 0 
-151.203 -46.7237 0 
-163.359 -108.673 0 
-158.256 -88.9495 0 
-165.521 -64.5636 0 
-165.74 -115.951 0 
-123.212 101.439 0 
-150.58 -100.94 0 
-141.742 -120.793 0 
-162.623 -99.1223 0 