<VTKFile type="UnstructuredGrid" version="0.1" byte_order="BigEndian">
  <UnstructuredGrid>
        <Piece NumberOfPoints="8000" NumberOfCells="0" Time= "0.495">      <Points>
        <DataArray name="Position" type="Float32"  NumberOfComponents= "3"  format="ascii">

25.0266 33.409 0 
29.8901 12.3964 0 
29.1311 14.9694 0 
32.4569 3.44321 0 
32.3177 6.44373 0 
33.2237 7.7153 0 
32.5398 32.5049 0 
34.4849 0.772128 0 
33.6334 1.36136 0 
35.4258 1.53432 0 
35.9657 3.78595 0 
35.1258 4.29497 0 
35.4946 8.68881 0 
35.1739 11.554 0 
35.0746 9.46912 0 
35.9351 13.501 0 
34.6077 19.0908 0 
36.2205 20.3022 0 
34.5671 26.0206 0 
35.5759 25.2258 0 
35.442 27.8552 0 
34.4298 30.9568 0 
35.1256 31.5674 0 
35.9801 35.5094 0 
34.1242 37.7737 0 
38.7253 0.710149 0 
36.9905 0.13805 0 
36.2672 1.67475 0 
38.4823 3.30613 0 
36.2555 5.18399 0 
37.8923 4.97645 0 
37.6901 8.4485 0 
37.1182 7.3765 0 
37.1791 10.2789 0 
37.3254 11.8212 0 
37.5279 12.8297 0 
38.2716 12.5394 0 
38.3408 15.7752 0 
37.196 15.0813 0 
36.6698 15.8375 0 
36.4367 19.2033 0 
36.517 17.191 0 
38.5446 17.752 0 
38.6365 21.6784 0 
36.1826 22.0332 0 
36.96 19.7084 0 
37.3709 22.5369 0 
38.2129 24.1838 0 
37.2944 23.2117 0 
38.6724 26.2559 0 
36.5094 25.3191 0 
37.6042 26.2481 0 
37.8057 28.3692 0 
37.8708 28.9822 0 
37.3409 29.595 0 
37.8132 29.877 0 
36.6959 33.7833 0 
37.1965 34.2418 0 
36.2687 32.4718 0 
38.3804 34.1457 0 
38.61 31.8105 0 
37.4638 35.0992 0 
36.441 35.427 0 
38.1886 35.6853 0 
37.251 35.4626 0 
40.7576 38.6166 0 
40.294 0.619883 0 
38.965 1.02165 0 
40.0696 1.19189 0 
39.9454 0.662948 0 
39.799 1.09901 0 
39.229 1.07708 0 
40.3744 0.797967 0 
41.1232 0.835841 0 
40.7175 2.91956 0 
40.0081 4.22256 0 
40.701 1.68312 0 
39.7494 1.66547 0 
40.2489 1.93644 0 
40.2852 2.41087 0 
39.3562 4.61301 0 
40.1343 1.6945 0 
39.2649 3.07384 0 
39.1543 3.42848 0 
40.9039 3.11378 0 
38.7858 6.91071 0 
40.4765 6.14514 0 
40.1696 5.59727 0 
40.3218 6.12881 0 
40.7762 4.46605 0 
40.3832 4.97265 0 
39.2964 5.97014 0 
39.2753 7.06893 0 
40.8332 9.16094 0 
38.6958 9.58098 0 
39.9482 8.15708 0 
39.7752 9.82405 0 
40.094 12.3374 0 
40.6526 10.8795 0 
40.8079 14.1954 0 
40.3703 12.1435 0 
40.9983 12.7511 0 
40.5555 11.9416 0 
40.2028 16.1855 0 
40.8154 15.0214 0 
40.1755 14.9506 0 
39.5051 16.9157 0 
39.3369 14.7389 0 
39.8199 19.6634 0 
40.4258 17.9452 0 
40.4278 21.9363 0 
41.1203 21.5109 0 
40.4212 20.7214 0 
39.3345 22.96 0 
40.6676 22.6841 0 
39.3423 22.5602 0 
40.1962 23.9915 0 
41.0467 24.5973 0 
41.0994 26.6515 0 
39.7802 26.0267 0 
39.6893 26.6593 0 
39.744 26.3922 0 
39.7283 25.842 0 
40.0325 27.9502 0 
39.8604 28.1736 0 
40.6307 29.1756 0 
41.2664 27.1714 0 
40.269 29.0333 0 
40.19 26.4691 0 
40.5558 29.1596 0 
39.1147 31.2778 0 
38.8425 29.4858 0 
41.2186 30.4567 0 
41.0895 31.1732 0 
39.9352 30.1805 0 
40.2544 30.7818 0 
40.9878 31.1257 0 
40.6093 32.615 0 
38.82 33.103 0 
39.5596 31.9347 0 
39.9129 33.2461 0 
39.0401 33.3438 0 
41.0694 32.7622 0 
39.3368 34.9863 0 
40.6527 35.9606 0 
41.2792 36.0188 0 
39.3292 37.7997 0 
40.057 37.3772 0 
40.5176 38.1197 0 
41.4841 0.544138 0 
42.9853 0.191637 0 
42.1146 38.4626 0 
41.8691 1.03844 0 
43.0377 1.96082 0 
43.3514 1.91305 0 
43.5128 2.55394 0 
43.5789 2.81222 0 
42.3253 3.701 0 
42.2384 2.89579 0 
43.0523 3.63739 0 
42.8376 3.25713 0 
42.8618 3.78614 0 
43.0148 4.24356 0 
41.1403 3.26535 0 
42.736 6.42053 0 
42.6734 4.69405 0 
41.5582 5.10362 0 
42.7898 5.16904 0 
42.2633 5.22089 0 
42.2948 5.57567 0 
43.108 4.79629 0 
41.4424 4.87962 0 
41.5157 6.67866 0 
42.0006 7.35184 0 
42.3449 8.83553 0 
41.37 7.57021 0 
41.8959 9.34563 0 
43.4969 9.61711 0 
41.68 7.24261 0 
42.9951 9.42125 0 
42.2183 10.366 0 
43.1615 10.6585 0 
43.2987 9.71931 0 
41.5633 13.2608 0 
41.9205 13.6025 0 
41.7463 13.6852 0 
42.8562 12.4178 0 
43.1639 12.2964 0 
42.0242 12.7147 0 
42.5878 16.194 0 
43.0167 16.3938 0 
41.7185 16.2197 0 
41.1593 15.2838 0 
41.4757 15.6088 0 
41.4584 16.4602 0 
43.6977 17.1109 0 
43.0716 14.4623 0 
43.4899 14.7792 0 
43.1375 16.3748 0 
43.2177 14.9843 0 
42.5955 15.4751 0 
42.0102 16.8829 0 
41.8097 18.6407 0 
43.1913 18.3229 0 
43.1811 17.1267 0 
43.6091 17.9856 0 
43.3157 18.2056 0 
42.6134 17.6141 0 
43.0777 20.7316 0 
43.1124 20.2085 0 
43.4515 21.69 0 
43.0705 19.9815 0 
41.4396 20.2079 0 
41.4262 20.4003 0 
42.4783 22.0565 0 
41.4961 21.7036 0 
42.4974 21.5741 0 
41.2404 22.5544 0 
41.6575 23.105 0 
41.3089 23.7872 0 
42.7025 22.4432 0 
41.8653 23.8306 0 
43.0658 24.2062 0 
42.6629 26.053 0 
42.0014 25.0525 0 
42.0373 27.1247 0 
42.7233 28.5085 0 
42.8248 28.3801 0 
43.2494 26.6215 0 
42.1613 26.6038 0 
42.9254 27.1285 0 
41.6075 27.3599 0 
43.2665 28.9607 0 
43.2504 28.4484 0 
41.4332 31.2973 0 
43.2736 30.1035 0 
41.8015 30.6783 0 
43.0728 30.0238 0 
42.5995 30.0208 0 
43.056 29.4723 0 
43.2507 31.6449 0 
43.3746 31.2914 0 
43.9821 29.6549 0 
43.1918 29.4241 0 
43.5005 30.9484 0 
43.3465 29.5519 0 
42.5822 30.3305 0 
42.6748 31.9786 0 
42.8266 33.7286 0 
41.6175 31.7543 0 
41.6458 33.509 0 
43.2885 33.8851 0 
42.3566 34.5085 0 
43.2192 32.9465 0 
42.7989 32.2152 0 
41.9286 35.1647 0 
42.5632 35.1298 0 
43.0099 35.5083 0 
42.3712 36.3369 0 
42.0083 35.5942 0 
41.6045 36.2966 0 
42.1753 34.749 0 
42.2333 36.9435 0 
41.2638 37.1163 0 
42.7707 35.7592 0 
41.5977 34.5205 0 
42.8687 37.0381 0 
42.5336 36.3979 0 
42.6422 39.0678 0 
43.6248 37.5474 0 
43.2659 38.359 0 
43.0006 37.6031 0 
43.2973 37.4535 0 
42.3591 37.2521 0 
43.3282 37.3389 0 
44.4332 0.391103 0 
45.1192 38.2561 0 
44.7845 37.5729 0 
45.836 0.339283 0 
45.1729 39.4117 0 
44.311 0.527993 0 
44.6334 1.27997 0 
44.9056 3.74523 0 
44.1702 3.70006 0 
45.2398 2.76397 0 
44.8473 4.25673 0 
44.4981 2.59329 0 
43.9995 2.1625 0 
44.0189 3.41923 0 
44.3984 3.05719 0 
46.1761 3.11701 0 
45.2895 4.39045 0 
45.0328 4.81883 0 
45.6667 5.6479 0 
45.8885 5.38774 0 
46.418 5.88115 0 
45.1092 5.46238 0 
46.0004 5.69379 0 
44.3756 9.06712 0 
45.8061 6.58123 0 
43.9753 7.60427 0 
45.0397 7.28062 0 
45.8304 7.55233 0 
44.9233 7.2335 0 
44.881 9.06403 0 
45.1422 6.61712 0 
45.0509 8.66444 0 
45.9523 7.73784 0 
46.0606 7.34768 0 
43.6395 7.33547 0 
46.051 8.48312 0 
44.1258 9.79037 0 
43.9419 11.5076 0 
45.1019 11.3444 0 
45.0891 10.7749 0 
43.8174 10.6452 0 
45.6345 10.1204 0 
43.6428 9.90906 0 
44.1815 10.7422 0 
45.8633 11.0232 0 
46.1678 10.0348 0 
44.6571 11.5135 0 
44.6544 9.90976 0 
44.2364 11.4266 0 
43.7394 12.2196 0 
44.8419 12.5592 0 
45.0459 12.0952 0 
44.1385 14.1105 0 
45.2933 11.9679 0 
45.6185 11.8728 0 
46.303 13.0546 0 
43.6644 12.0541 0 
46.0317 12.7775 0 
44.1178 14.5092 0 
46.1711 12.8754 0 
46.2176 13.8755 0 
45.229 13.8292 0 
44.5819 15.119 0 
44.0141 15.7254 0 
45.4848 16.5495 0 
46.1428 15.906 0 
45.7688 14.6144 0 
45.0572 16.68 0 
44.2338 16.0326 0 
44.9754 16.0123 0 
45.1215 16.4261 0 
46.0038 16.8222 0 
45.8503 16.2404 0 
45.4416 15.1938 0 
44.7764 16.6864 0 
46.0844 15.3646 0 
43.8797 16.7359 0 
45.8756 14.6857 0 
43.7939 18.7876 0 
46.1497 17.3529 0 
45.8296 17.534 0 
44.8558 19.29 0 
45.0318 17.7563 0 
45.9979 18.288 0 
44.1691 19.5556 0 
44.6667 17.474 0 
43.9909 17.5903 0 
45.367 18.5354 0 
45.9968 17.1553 0 
46.0943 21.2964 0 
45.53 19.812 0 
45.8363 21.1067 0 
45.4195 21.4402 0 
44.5958 21.1708 0 
45.4951 22.1794 0 
46.2001 19.7375 0 
44.9789 21.7831 0 
45.3236 19.5943 0 
45.9601 19.7469 0 
45.371 21.8374 0 
44.5246 22.6805 0 
45.9704 23.689 0 
44.5617 22.029 0 
44.0712 23.4119 0 
44.8027 24.3445 0 
43.9911 22.8674 0 
45.3722 25.3651 0 
46.113 24.2726 0 
44.7742 26.0068 0 
43.8671 26.2743 0 
45.8785 26.845 0 
45.5207 25.1894 0 
43.847 25.0699 0 
44.5505 25.6306 0 
44.8081 26.103 0 
44.1392 25.7765 0 
44.4222 28.3852 0 
46.1691 27.3368 0 
45.8465 28.2208 0 
45.8025 27.7112 0 
44.9074 28.2701 0 
44.56 28.6106 0 
43.8069 28.1994 0 
46.0477 29.2882 0 
44.6168 27.6716 0 
44.732 28.7244 0 
45.3154 26.6466 0 
44.1747 30.4613 0 
44.2476 30.5718 0 
45.9859 30.8483 0 
45.3153 29.7569 0 
46.1303 30.511 0 
45.9003 31.5856 0 
44.0634 31.1527 0 
45.7158 29.8746 0 
45.2961 29.2781 0 
44.6976 31.1112 0 
46.2364 29.7563 0 
44.5505 29.8969 0 
45.9507 31.6158 0 
44.6905 30.7153 0 
44.408 29.3554 0 
46.0227 33.5305 0 
44.9154 33.7922 0 
45.7268 33.3849 0 
44.4898 33.479 0 
44.523 32.8588 0 
44.2472 33.9373 0 
45.1003 32.655 0 
45.2028 31.9714 0 
44.9033 36.0249 0 
44.3477 34.0221 0 
46.2214 34.7461 0 
44.7158 36.7736 0 
45.0755 36.2667 0 
45.3363 36.0326 0 
44.8371 34.699 0 
45.6499 34.355 0 
44.0506 35.9428 0 
44.5049 34.9623 0 
44.0504 35.4527 0 
44.5198 37.7322 0 
45.2073 37.6276 0 
44.9875 36.8046 0 
43.9833 37.358 0 
44.7958 37.4944 0 
45.7884 39.6082 0 
45.5879 37.5553 0 
45.854 36.7267 0 
45.9924 36.5593 0 
43.8831 38.399 0 
45.9713 38.7842 0 
45.8543 36.6197 0 
46.4474 0.252961 0 
48.7193 1.23759 0 
46.4791 38.2769 0 
47.285 1.26331 0 
47.129 1.31923 0 
47.6857 0.496803 0 
47.2917 39.0945 0 
46.6189 0.843052 0 
47.697 0.529932 0 
48.4524 39.3909 0 
48.6182 1.0168 0 
47.8579 0.320561 0 
46.6794 0.671291 0 
47.9469 0.675173 0 
46.7838 39.2444 0 
47.4266 39.9594 0 
48.3181 39.8994 0 
47.3167 1.93698 0 
47.951 3.21365 0 
47.4985 3.75303 0 
48.5347 4.0506 0 
47.0637 2.04138 0 
46.6146 4.15311 0 
46.5635 2.77909 0 
46.8204 3.77005 0 
46.7505 4.61656 0 
47.2904 5.66553 0 
47.9329 4.29276 0 
48.3827 5.90109 0 
47.7652 4.94805 0 
47.0573 4.88085 0 
47.2313 4.85418 0 
48.6744 8.06403 0 
46.1073 7.55369 0 
47.9059 9.54916 0 
48.1526 8.27202 0 
47.9422 9.17482 0 
48.1056 8.20109 0 
46.5293 11.0963 0 
47.9306 9.3395 0 
48.7907 8.92031 0 
47.6914 10.6091 0 
48.4468 9.70736 0 
46.0384 10.6024 0 
48.4718 9.90857 0 
47.3672 10.4626 0 
48.0386 11.1415 0 
46.4939 10.9005 0 
46.6192 11.1777 0 
48.7395 11.408 0 
47.8957 11.5582 0 
47.1277 10.7857 0 
47.5605 12.0763 0 
46.8473 12.2743 0 
48.4745 13.4469 0 
47.9928 12.8695 0 
48.0829 12.7372 0 
48.1669 13.3125 0 
47.8438 11.588 0 
47.39 14.2077 0 
46.7811 13.1973 0 
46.0888 13.6425 0 
48.0083 13.058 0 
48.3398 13.0495 0 
47.9606 12.6175 0 
47.1177 12.5651 0 
47.8863 13.0498 0 
46.86 12.4983 0 
48.893 13.3871 0 
[...]
      <PointData Vectors="vector">
        <DataArray type="Float32" Name="Velocity" NumberOfComponents="3" format="ascii">

-247.14 -185.82 0 
-289.161 -95.444 0 
-231.477 -103.832 0 
-307.199 -136.999 0 
-217.515 -134.612 0 
-305.55 -150.112 0 
-282.689 -115.889 0 
-235.652 -128.299 0 
-222.549 -80.1046 0 
-294.762 -111.417 0 
-280.228 -60.1185 0 
-274.553 -143.539 0 
-278.137 -181.025 0 
-273.388 -162.761 0 
-259.426 -189.986 0 
-282.156 -145.089 0 
-277.595 -155.364 0 
-270.78 -108.156 0 
-279.062 -117.219 0 
-312.348 -140.803 0 
-214.875 -120.181 0 
-236.656 162.581 0 
-308.309 -106.804 0 
-245.966 -108.33 0 
-245.706 -116.218 0 
-234.294 -105.963 0 
-291.612 -127.009 0 
-275.923 -122.639 0 
-273.574 -126.231 0 
-247.7 -87.4466 0 
-256.474 -116.37 0 
-264.412 -16.5454 0 
-242.567 -100.098 0 
-278.053 -88.6535 0 
-215.091 -0.30039 0 
-269.326 -83.151 0 
-240.61 -196.026 0 
-267.671 -179.881 0 
-206.117 -66.6296 0 
-266.665 -60.585 0 
-293.216 -67.3381 0 
-220.717 35.0962 0 
-244.461 -70.9547 0 
-256.413 -200.737 0 
-278.909 -68.5045 0 
-255.145 -149.375 0 
-253.99 -155.95 0 
-303.842 -172.562 0 
-346.639 -187.227 0 
-327.864 -210.969 0 
-315.739 -66.9371 0 
-216.154 36.4067 0 
-291.085 -55.1545 0 
-270.571 -37.7635 0 
-308.764 -37.2351 0 
-229.274 54.2242 0 
-256.804 -172.846 0 
-290.325 -52.2179 0 
-235.403 -137.127 0 
-327.017 -91.85 0 
-280.621 -24.7487 0 
-237.56 -137.285 0 
-267.832 -68.7679 0 
-292.967 -52.5012 0 
-262.554 -22.0237 0 
-233.315 -17.4236 0 
-284.857 -68.509 0 
-240.655 -104.269 0 
-251.57 -250.675 0 
-329.051 -102.391 0 
-187.281 68.78 0 
-235.218 -90.3142 0 
-262.459 -136.777 0 
-276.257 -215.313 0 
-266.758 -72.4918 0 
-243.765 -52.3153 0 
-236.797 -49.7652 0 
-281.265 -207.319 0 
-287.575 -117.408 0 
-260.773 -121.73 0 
-271.437 -67.5014 0 
-252.885 -94.5468 0 
-239.188 -195.163 0 
-274.357 -200.616 0 
-255.435 35.6207 0 
-234.838 -59.0163 0 
-295.014 -104.611 0 
-306.377 -205.081 0 
-258.627 -70.6235 0 
-258.905 -224.129 0 
-240.766 -203.838 0 
-236.78 -181.866 0 
-274.507 -77.8819 0 
-261.576 -229.062 0 
-312.976 -109.645 0 
-275.564 -57.4054 0 
-317.051 -84.0249 0 
-288.159 -160.876 0 
-294.529 -176.118 0 
-268.428 -193.637 0 
-261.717 -61.9158 0 
-249.171 -174.148 0 
-279.602 -192.829 0 
-289.357 -193.232 0 
-256.826 -211.74 0 
-284.19 -177.56 0 
-249.033 -196.788 0 
-242.785 -175.889 0 
-296.762 -130.485 0 
-275.867 -157.956 0 
-307.29 -75.0548 0 
-248.662 -160.782 0 
-284.239 -196.933 0 
-257.525 -183.616 0 
-279.905 -168.676 0 
-271.089 -158.64 0 
-291.555 -93.7905 0 
-255.824 -137.558 0 
-269.084 -119.098 0 
-225.095 -107.176 0 
-310.722 -186.445 0 
-253.237 -164.632 0 
-297.711 -55.2707 0 
-290.542 -83.7371 0 
-247.812 -152.133 0 
-248.665 9.98286 0 
-208.223 -114.338 0 
-288.639 -146.582 0 
-288.559 -128.376 0 
-176.057 -54.054 0 
-267.344 -119.521 0 
-216.636 -111.788 0 
-203.476 72.2818 0 
-280.43 -138.773 0 
-297.212 -187.766 0 
-271.316 -162.775 0 
-274.717 -32.2083 0 
-309.979 -272.438 0 
-226.345 -104.137 0 
-303.476 -181.838 0 
-214.504 -117.062 0 
-262.81 -151.596 0 
-227.327 -112.085 0 
-272.36 -137.789 0 
-271.776 -243.36 0 
-244.69 27.9362 0 
-269.604 18.071 0 
-281.508 -31.4261 0 
-272.341 -3.76334 0 
-309.378 -187.667 0 
-244.565 -112.519 0 
-255.088 -43.3658 0 
-238.456 -5.22205 0 
-242.778 -136.193 0 
-231.4 -71.9449 0 
-319.843 -119.588 0 
-228.695 -71.2572 0 
-240.106 -109.731 0 
-215.384 -72.3723 0 
-285.506 -215.051 0 
-247.642 -90.2181 0 
-203.205 -97.5087 0 
-310.185 -162.429 0 
-196.969 -104.139 0 
-244.183 -77.5476 0 
-200.975 -65.4794 0 
-270.32 -123.464 0 
-276.751 -160.315 0 
-242.753 -118.612 0 
-217.008 -212.954 0 
-288.506 -78.9126 0 
-299.154 -230.853 0 
-277.555 -139.308 0 
-267.649 -97.6821 0 
-298.021 -71.1549 0 
-255.363 -116.232 0 
-196.218 112.791 0 
-237.81 -177.211 0 
-222.993 -188.541 0 
-286.961 -170.612 0 
-315.244 -198.129 0 
-251.343 -118.489 0 
-267.416 -216.065 0 
-258.851 -193.453 0 
-242.208 -225.528 0 
-249.796 -163.989 0 
-269.625 -80.3478 0 
-239.153 -82.5899 0 
-247.725 -198.187 0 
-230.228 -64.5198 0 
-299.188 -155.317 0 
-273.402 -205.426 0 
-289.274 -240.136 0 
-248.65 -145.356 0 
-249.048 -41.0762 0 
-226.192 -136.714 0 
-265.159 -90.6595 0 
-214.679 -51.7838 0 
-264.849 -55.5372 0 
-231.615 -59.0838 0 
-217.99 -220.105 0 
-243.962 -132.558 0 
-260.146 -174.394 0 
-197.513 -207.521 0 
-303.539 -73.4718 0 
-281.414 -180.107 0 
-289.26 -236.938 0 
-283.519 -104.014 0 
-244.327 -89.0601 0 
-279.892 -187.466 0 
-228.084 -159.504 0 
-289.976 -180.105 0 
-239.72 -51.837 0 
-290.649 -161.986 0 
-285.531 -30.6253 0 
-284.891 -88.7165 0 
-262.31 -168.326 0 
-275.735 -167.636 0 
-240.121 -79.4338 0 
-229.14 -193.231 0 
-305.602 -192.104 0 
-259.503 -184.973 0 
-284.046 -92.0436 0 
-264.086 -169.865 0 
-270.373 -64.5963 0 
-289.901 -156.679 0 
-281.885 -83.3997 0 
-283.414 -39.5981 0 
-231.742 -133.13 0 
-279.397 -186.325 0 
-261.125 -140.993 0 
-212.907 -47.5174 0 
-272.761 -37.9167 0 
-322.692 -205.158 0 
-285.51 -47.2159 0 
-287.934 -130.814 0 
-288.802 -243.513 0 
-299.712 -149.495 0 
-302.971 -189.58 0 
-238.711 -135.767 0 
-270.422 -167.744 0 
-293.965 -41.3288 0 
-225.857 -105.732 0 
-249.681 -186.759 0 
-258.351 -149.017 0 
-231.51 -78.3785 0 
-243.92 -166.856 0 
-317.38 -136.297 0 
-270.843 83.6235 0 
-253.342 -137.767 0 
-288.144 -134.001 0 
-261.438 -137.161 0 
-278.891 -244.808 0 
-284.106 -150.553 0 
-322.145 -234.979 0 
-273.59 -54.8128 0 
-267.279 -76.9476 0 
-310.224 -140.594 0 
-313.033 -169.01 0 
-262.795 -14.9149 0 
-267.787 -143.362 0 
-247.279 -113.576 0 
-253.81 -145.038 0 
-255.964 -137.627 0 
-260.011 -117.527 0 
-288.395 -133.4 0 
-338.008 -166.914 0 
-253.668 -12.9894 0 
-205.077 23.0062 0 
-245.165 -111.359 0 
-222.947 -5.67318 0 
-227.985 -133.317 0 
-254.511 -139.385 0 
-316.654 -247.578 0 
-250.092 -102.366 0 
-264.431 -87.1533 0 
-235.027 -219.648 0 
-225.134 -78.0585 0 
-273.591 -241.323 0 
-236.269 -151.983 0 
-270.769 -118.229 0 
-264.787 -106.649 0 
-278.254 -213.757 0 
-220.093 82.8209 0 
-233.056 19.7234 0 
-242.516 -122.901 0 
-314.563 -151.32 0 
-313.799 -114.584 0 
-270.238 -180.879 0 
-249.967 -77.8878 0 
-299.432 -233.499 0 
-274.578 -150.652 0 
-244.556 -130.251 0 
-284.811 -135.443 0 
-249.083 79.7776 0 
-309.598 -73.7738 0 
-214.579 -58.1193 0 
-259.794 -84.2296 0 
-244.672 -207.453 0 
-256.345 -125.482 0 
-283.114 -97.4648 0 
-228.941 -135.737 0 
-266.803 -97.9408 0 
-240.457 -104.744 0 
-200.233 -187.482 0 
-217.711 -180.76 0 
-288.16 -172.141 0 
-267.588 -228.934 0 
-256.512 -123.586 0 
-268.674 -161.309 0 
-276.834 -189.633 0 
-288.796 -243.135 0 
-260.8 -213.796 0 
-323.982 -218.466 0 
-256.597 -121.619 0 
-261.311 -50.1728 0 
-262.108 -203.348 0 
-247.264 2.65254 0 
-275.852 -234.901 0 
-272.779 -72.2333 0 
-290.688 -218.943 0 
-255.792 -64.381 0 
-290.44 -238.401 0 
-234.317 -93.4698 0 
-268.995 -200.846 0 
-223.866 -148.584 0 
-277.958 -159.601 0 
-251.477 -238.367 0 
-254.724 -197.472 0 
-285.626 -151.179 0 
-252.395 -14.8864 0 
-256.794 -66.006 0 
-259.65 -188.459 0 
-237.416 -220.866 0 
-194.276 -70.2056 0 
-250.579 -202.139 0 
-288.063 -226.453 0 
-268.237 -196.237 0 
-260.431 -224.459 0 
-281.779 -229.255 0 
-224.694 -182.113 0 
-268.711 -189.321 0 
-217.46 -53.9487 0 
-288.63 -239.31 0 
-248.55 -2.85347 0 
-251.428 -86.4659 0 
-259.089 -104.214 0 
-261.284 -211.125 0 
-279.878 -219.646 0 
-316.459 -135.828 0 
-237.906 -179.681 0 
-236.967 -40.7736 0 
-231.859 -182.637 0 
-321.028 -126.585 0 
-289.191 -183.981 0 
-255.458 -200.052 0 
-277.422 -194.748 0 
-267.289 -83.5022 0 
-266.994 -194.02 0 
-262.578 -78.1527 0 
-309.784 -82.8848 0 
-257.351 -163.479 0 
-251.714 -117.663 0 
-271.393 -79.1083 0 
-285.082 -180.571 0 
-238.538 -149.094 0 
-230.749 -56.834 0 
-288.018 -176.992 0 
-250.801 18.5911 0 
-277.122 -70.6553 0 
-268.75 -175.405 0 
-197.965 17.8433 0 
-277.65 -210.423 0 
-242.726 -196.333 0 
-264.616 -36.8843 0 
-276.993 -208.594 0 
-237.157 -166.027 0 
-285.172 -141.759 0 
-265.993 -194.376 0 
-268.966 -311.064 0 
-207.183 -61.2853 0 
-270.059 -193.058 0 
-275.576 -198.299 0 
-267.255 -164.872 0 
-280.006 -179.336 0 
-200.949 -62.8513 0 
-296.64 -258.235 0 
-251.99 -193.799 0 
-247.777 -92.8733 0 
-207.658 -139.625 0 
-281.472 -141.642 0 
-263.449 -147.441 0 
-305.1 -159.735 0 
-295.609 -291.905 0 
-295.168 -165.758 0 
-251.273 -143.689 0 
-277.318 -146.23 0 
-233.239 -135.32 0 
-239.586 -12.1068 0 
-196.766 -120.235 0 
-291.148 -149.45 0 
-282.959 -166.813 0 
-288.406 -181.78 0 
-230.208 -153.667 0 
-265.072 -182.9 0 
-242.211 -41.3304 0 
-215.803 -143.21 0 
-265.929 -131.2 0 
-283.055 -60.9072 0 
-254.153 -172.801 0 
-294.772 -39.9414 0 
-224.809 -150.362 0 
-240.389 -37.0276 0 
-230.505 -186.214 0 
-230.198 -154.013 0 
-286.767 -161.207 0 
-252.773 -153.828 0 
-258.612 -144.697 0 
-264.41 -173.45 0 
-255.551 -124.266 0 
-253.939 -152.214 0 
-287.858 -225.554 0 
-243.907 -237.444 0 
-261.309 -184.011 0 
-297.567 -64.9991 0 
-261.272 -55.784 0 
-269.021 -81.9358 0 
-316.561 -34.1348 0 
-228.926 -152.441 0 
-281.503 -124.272 0 
-286.049 16.7067 0 
-279.37 -107.34 0 
-275.97 -236.681 0 
-288.401 -163.396 0 
-290.702 -173.791 0 
-261.593 -1.56364 0 
-236.393 -96.8081 0 
-217.623 4.96781 0 
-254.346 -152.425 0 
-248.84 -148.649 0 
-251.585 -247.228 0 
-286.027 -135.201 0 
-249.218 -98.3045 0 
-215.07 -142.228 0 
-310.901 -135.04 0 
-247.142 -219.21 0 
-279.378 -243.952 0 
-292.046 -123.707 0 
-208.917 70.7987 0 
-249.116 -15.9105 0 
-270.622 -27.5172 0 
-251.843 -156.545 0 
-209.41 -63.7678 0 
-230.066 -133.733 0 
-277.462 -135.027 0 
-282.612 -155.075 0 
-286.844 -140.714 0 
-246.465 -225.196 0 
-195.572 -106.142 0 
-224.43 -19.7228 0 
-259.115 -29.5271 0 
-245.032 -43.2325 0 
-265.314 -24.2802 0 
-242.286 47.3955 0 
-256.977 -163.477 0 
-252.505 -13.3917 0 
-289.717 -148.908 0 
-299.721 -170.67 0 
-228.745 -62.4224 0 
-297.968 -139.915 0 
-271.464 -136.43 0 
-255.582 -114.464 0 
-263.546 -131.64 0 
-240.283 -98.6466 0 
-253.686 -113.785 0 
-285.031 -195.413 0 
-279.045 -290.14 0 
-249.644 -211.367 0 
-263.592 -148.342 0 
-220.345 -88.8902 0 
-236.165 -86.233 0 
-212.514 -245.047 0 
-255.556 -154.813 0 
-233.558 -100.016 0 
-287.794 -112.037 0 
-236.158 -220.68 0 
-242.066 -150.046 0 
-275.52 -245.492 0 
-288.314 -108.914 0 
-240.05 -105.902 0 
-278.096 -258.719 0 
-231.612 -180.514 0 
-212.289 -96.5138 0 
-271.159 -105.489 0 
-260.841 -28.7349 0 
-218.845 -223.489 0 
-243.076 15.3756 0 
-244.245 -115.565 0 
-258.871 -207.792 0 
-222.241 -116.848 0 
-252.725 -227.505 0 
-270.139 -205.99 0 
-274.687 -214.512 0 
-257.337 -202.896 0 
-270.223 -218.554 0 
-295.281 -173.687 0 
-315.173 -94.1428 0 
-226.764 -199.369 0 
-279.699 -80.8481 0 
-238.564 -237.35 0 
-234.61 -101.376 0 
-301.247 -194.777 0 
-284.508 -94.5734 0 
-235.388 -142.816 0 
-249.084 -61.7838 0 
-270.127 -124.313 0 
-275.716 -192.557 0 
-279.08 -184.823 0 
-283.747 -60.6589 0 
-277.104 -196.965 0 
-298.339 -111.288 0 
-237.775 -103.353 0 
-312.955 -187.331 0 
-193.298 -73.4489 0 
-310.742 -216.483 0 
-145.765 93.3174 0 
-273.789 -190.656 0 
-213.655 -202.877 0 
-297.062 -148.289 0 
-260.984 -234.925 0 
-261.894 -161.427 0 
-290.774 -208.665 0 
-239.163 -182.996 0 
-249.942 -96.0501 0 
-296.572 -212.094 0 
-291.612 -206.302 0 
-263.775 -195.739 0 
-242.974 91.7419 0 
-260.794 -233.875 0 
-272.255 -219.497 0 
-223.216 -91.9978 0 
-300.022 -216.415 0 
-249.105 -214.643 0 
-214.819 -85.4794 0 
-255.961 48.6152 0 
-214.463 -73.0609 0 
-282.462 -125.614 0 
-286.031 -171.954 0 
-245.788 -224.402 0 
-268.558 -63.0976 0 
-233.509 -151.645 0 
-205.884 -189.854 0 
-209.686 -189.99 0 
-246.434 -215.601 0 
-257.47 -173.039 0 
-227.325 -220.441 0 
-277.214 -179.748 0 
-293.208 -115.576 0 
-260.668 -88.9145 0 
-268.944 -221.39 0 
-273.998 -98.4387 0 
-228.328 -190.673 0 
-260.297 -235.844 0 
-245.163 -211.473 0 
-218.725 -74.4776 0 
-269.139 -106.743 0 
-255.11 -234.246 0 
-227.717 -226.47 0 
-307.515 -228.39 0 
-291.763 -214.678 0 
-294.909 -167.212 0 
-291.286 -165.937 0 
-295.61 -159.495 0 
-287.935 -201.359 0 
-261.56 -110.509 0 
-258.028 -82.8729 0 
-263.818 -148.547 0 
-264.874 -72.2124 0 
-202.557 -100.288 0 
-222.105 -151.472 0 
-263.43 -215.31 0 
-248.883 -183.901 0 
-262.327 -209.698 0 
-240.814 -183.876 0 
-277.038 -221.425 0 
-282.421 -144.185 0 
-266.291 -192.939 0 
-263.292 -188.584 0 
-317.084 -189.976 0 
-281.557 -175.487 0 
-279.613 -203.047 0 
-243.498 -183.412 0 
-270.178 -151.092 0 
-282.133 -158.596 0 
-255.142 -188.3 0 
-288.908 -166.123 0 
-278.258 -47.6957 0 
-294.602 -146.943 0 
-290.904 -153.003 0 
-257.221 -179.51 0 
-269.197 -181.471 0 
-227.236 -272.569 0 
-261.563 -137.613 0 
-280.766 -141.915 0 
-292.115 -150.395 0 
-219.521 -76.5982 0 
-309.898 -218.565 0 
-254.442 -149.429 0 
-282.612 -158.885 0 
-238.023 -154.45 0 
-238.154 -58.0333 0 
-272.225 -178.34 0 
-282.958 -153.248 0 
-263.038 -145.35 0 
-289.986 -140.99 0 
-220.38 -190.207 0 
-311.671 -203.602 0 
-301.675 -152.265 0 
-264.833 -190.382 0 
-308.607 -145.207 0 
-323.626 -184.407 0 
-271.653 -194.004 0 
-265.375 -170.302 0 
-225.488 42.4327 0 
-211.527 -149.494 0 
-247.555 -177.851 0 
-298.825 -206.483 0 
-241.74 -41.0496 0 
-261.139 -157.791 0 
-245.626 -80.9434 0 
-194.894 -146.865 0 
-215.332 56.5271 0 
-263.191 -19.8745 0 
-280.285 -259.395 0 
-301.585 -187.797 0 
-242.552 -159.209 0 
-240.226 -149.262 0 
-237.805 -258.277 0 
-283.055 -159.798 0 
-266.507 -99.0104 0 
-268.959 -161.804 0 
-192.716 7.4813 0 
-247.244 -168.404 0 
-263.498 -280.649 0 
-291.172 -169.275 0 
-254.182 -185.096 0 
-232.929 -175.556 0 
-319.937 -186.136 0 
-272.502 -178.117 0 
-257.783 -119.278 0 
-293.79 -175.43 0 
-185.536 59.3851 0 
-260.031 -194.704 0 
-273.251 -178.699 0 
-262.389 -209.622 0 
-252.955 -30.4126 0 
-202.765 -130.663 0 
-301.423 -246.336 0 
-206.895 35.0957 0 
-249.199 -44.871 0 
-296.066 -190.82 0 
-266.826 -133.685 0 
-248.17 -124.615 0 
-205.513 9.90417 0 
-270.131 -275.768 0 
-293.561 -266.392 0 
-273.506 -270.844 0 
-231.045 -214.303 0 
-276.981 -166.258 0 
-227.72 -12.7518 0 
-271.531 -227.738 0 
-272.096 -209.44 0 
-211.964 36.6663 0 
-251.22 -143.295 0 
-234.141 -157.163 0 
-276.941 -136.718 0 
-228.716 -126.948 0 
-243.731 -124.681 0 
-256.866 -142.097 0 
-234.624 -132.316 0 
-280.17 -233.06 0 
-282.699 -153.631 0 
-209.393 -113.573 0 
-262.768 -128.664 0 
-284.032 -243.342 0 
-260.518 -115.213 0 
-204.643 -18.4853 0 
-210.162 -7.84923 0 
-284.428 -160.463 0 
-295.013 13.1457 0 
-294.865 -238.868 0 
-200.919 -243.468 0 
-273.131 -167.53 0 
-220.572 -227.678 0 
-271.371 -183.686 0 
-287.187 -242.42 0 
-244.965 -232.308 0 
-209.703 -80.0604 0 
-258.019 -114.34 0 
-264.393 -162.293 0 
-231.497 -266.398 0 
-207.613 -226.275 0 
-264.718 -228.767 0 
-296.236 -232.993 0 
-282.605 -208.521 0 
-271.396 -138.443 0 
-259.403 -237.586 0 
-261.839 -206.607 0 
-247.666 -212.314 0 
-262.096 -212.422 0 
-233.477 -110.691 0 
-209.382 -56.1382 0 
-215.709 -257.821 0 
-282.367 -244.443 0 
-213.967 -97.1927 0 
-246.878 -209.071 0 
-199.566 76.3099 0 
-247.583 -135.199 0 
-212.513 -133.674 0 
-252.423 -215.313 0 
-207.463 -191.522 0 
-282.303 -216.541 0 
-211.688 -128.19 0 
-268.837 -246.483 0 
-304.731 -226.662 0 
-224.994 -119.469 0 
-215.594 -229.861 0 
-205.588 -82.661 0 
-269.644 -115.504 0 
-230.607 -106.318 0 
-260.574 -63.5529 0 
-304.278 -147.251 0 
-187.51 -154.14 0 
-239.026 -233.628 0 
-208.32 0.760447 0 
-267.816 -110.515 0 
-216.159 -74.063 0 
-251.961 -110.936 0 
-212.588 -34.6308 0 
-274.078 -226.134 0 
-281.128 -103.75 0 
-306.293 -236.248 0 
-276.82 -228.668 0 
-241.91 -44.8512 0 
-301.827 -214.038 0 
-281.565 -254.867 0 
-246.691 -108.245 0 
-256.831 -220.771 0 
-276.854 -16.4966 0 
-274.984 -99.3726 0 
-231.779 -116.399 0 
-150.133 95.0972 0 
-274.133 -114.489 0 
-290.548 -98.9518 0 
-260.929 -188.967 0 
-246.414 -90.001 0 
-259.511 -240.056 0 
-275.64 -189.714 0 
-273.54 -52.0565 0 
-296.425 -211.675 0 
-255.018 -169.408 0 
-296.586 -118.31 0 
-229.858 -241.453 0 
-255.319 -108.423 0 
-206.431 -52.4976 0 
-271.227 -186.984 0 
-234.713 -65.5471 0 
-281.832 -163.809 0 
-290.141 -135.818 0 
-272.287 -169.325 0 
-228.595 -135.606 0 
-237.739 -84.2159 0 
-220.305 105.484 0 
-264.658 -180.485 0 
-277.185 -203.52 0 
-264.158 -177.09 0 
-197.11 -190.771 0 
-242.097 -233.038 0 
-283.99 -186.834 0 
-264.189 -95.7032 0 
-242.488 -205.947 0 
-230.657 -83.8038 0 
-204.715 -62.3981 0 
-256.215 -91.4857 0 
-259.975 -184.511 0 
-249.3 -180.214 0 
-261.844 -49.0174 0 
-259.072 -111.977 0 
-296.542 -51.3842 0 
-225.229 -97.5474 0 
-259.621 -181.532 0 
-219.211 -157.504 0 
-214.833 -103.459 0 
-251.117 47.7301 0 
-291.742 -182.961 0 
-260.369 -197.889 0 
-283.308 -213.547 0 
-255.383 -244.503 0 
-309.535 -128.181 0 
-213.022 42.7155 0 
-231.574 -11.7661 0 
-254.045 -179.98 0 
-258.823 -153.745 0 
-264.419 -214.163 0 
-300.235 -204.525 0 
-228.76 -184.722 0 
-302.88 -215.105 0 
-221.157 -181.359 0 
-294.705 -215.626 0 
-268.214 -231.727 0 
-235.328 -182.231 0 
-253.386 -240.797 0 
-233.759 -212.822 0 
-284.347 -77.458 0 
-299.753 -211.663 0 
-228.108 -76.3775 0 
-277.175 -104.272 0 
-239.097 -170.401 0 
-237.338 -196.6 0 
-247.596 -67.6305 0 
-215.062 -168.399 0 
-257.619 -178.136 0 
-290.003 -70.4021 0 
-268.626 -174.132 0 
-280.448 -180.539 0 
-225.137 -118.103 0 
-241.736 -85.9912 0 
-284.275 -101.32 0 
-270.028 -213.992 0 
-265.038 -188.216 0 
-271.89 -82.2761 0 
-203.615 -51.3852 0 
-282.97 -192.854 0 
-275.082 -120.407 0 
-246.742 -127.383 0 
-262.277 -218.59 0 
-211.032 -185.049 0 
-259.042 -108.63 0 
-247.711 -264.149 0 
-228.374 -161.721 0 
-218.458 -148.149 0 
-229.302 -145.861 0 
-265.862 -224.641 0 
-229.429 -187.113 0 
-237.147 -67.4277 0 
-272.484 -162.71 0 
-221.318 -147.511 0 
-243.849 -178.719 0 
-312.614 -194.144 0 
-226.063 -100.573 0 
-233.511 -163.726 0 
-218.162 -149.62 0 
-260.207 -101.129 0 
-253.668 -231.437 0 
-278.422 -159.57 0 
-225.09 -216.308 0 
-280.841 -207.645 0 
-231.782 -254.226 0 
-205.922 -193.976 0 
-236.185 -124.903 0 
-242.918 -171.087 0 
-280.801 -192.901 0 
-250.327 -165.18 0 
-225.918 -236.947 0 
-238.073 -73.3032 0 
-232.07 -172.838 0 
-280.614 -166.705 0 
-291.596 -202.456 0 
-270.13 -51.6482 0 
-253.386 -160.809 0 
-297.109 -153.563 0 
-252.596 -184.548 0 
-225.313 -165.272 0 
-265.622 -220.468 0 
-249.741 -163.587 0 
-236.918 -271.309 0 
-259.764 -170.952 0 
-247.899 -45.3178 0 
-209.599 -183.713 0 
-250.657 -158.099 0 
-223.735 -201.086 0 
-228.851 -31.7247 0 
-200.525 -145.544 0 
-248.681 62.9878 0 
-235.093 -57.491 0 
-213.994 -193.095 0 
-198.565 -148.807 0 
-235.454 -151.821 0 
-229.662 -168.007 0 
-226.798 -173.748 0 
-228.116 -169.143 0 
-217.888 -55.7877 0 
-231.717 -150.357 0 
-274.353 -261.966 0 
-285.667 -44.9249 0 
-277.274 -128.85 0 
-224.684 -239.645 0 
-210.525 2.12533 0 
-268.938 -173.956 0 
-226.513 -123.855 0 
-239.517 -140.617 0 
-246.746 -137.833 0 
-204.513 -33.2735 0 
-294.304 -187.635 0 
-267.719 -248.729 0 
-262.843 -137.476 0 
-248.495 -137.814 0 
-278.272 -109.628 0 
-220.571 5.37992 0 
-205.958 -254.565 0 
-247.483 -199.717 0 
-278.163 -216.201 0 
-235.119 -168.942 0 
-280.647 -140.433 0 
-253.821 -184.242 0 
-140.05 49.206 0 
-230.771 -51.9284 0 
-261.224 -142.964 0 
-288.826 -203.205 0 
-254.224 -250.704 0 
-197.563 -189.059 0 
-244.74 -144.717 0 
-256.186 -133.242 0 
-243.536 -172.783 0 
-231.443 -160.211 0 
-276.288 -227.146 0 
-252.593 -130.941 0 
-241.409 -245.147 0 
-255.987 -157.772 0 
-263.227 -169.497 0 
-224.898 -265.392 0 
-256.548 -182.676 0 
-217.155 -34.917 0 
-189.762 56.8196 0 
-287.157 -118.461 0 
-181.806 -162.411 0 
-229.453 -29.2293 0 
-249.92 -252.656 0 
-266.544 -96.7954 0 
-306.504 -237.437 0 
-235.052 -276.656 0 
-231.854 -153.813 0 
-286.118 -161.018 0 
-274.97 -150.267 0 
-269.081 -174.848 0 
-244.392 -124.983 0 
-282.848 -247.157 0 
-286.863 -132.054 0 
-193.097 -58.3886 0 
-275.023 -195.6 0 
-254.996 -249.709 0 
-253.39 -101.037 0 
-289.335 -170.925 0 
-241.477 -175.066 0 
-224.603 -144.008 0 
-249.306 -126.052 0 
-238.938 -140.201 0 