<VTKFile type="UnstructuredGrid" version="0.1" byte_order="BigEndian">
  <UnstructuredGrid>
        <Piece NumberOfPoints="8000" NumberOfCells="0" Time= "0.31">      <Points>
        <DataArray name="Position" type="Float32"  NumberOfComponents= "3"  format="ascii">

70.7474 28.2932 0 
72.5591 31.3481 0 
71.9544 34.1784 0 
74.2617 0.699638 0 
75.5089 15.5636 0 
75.4236 25.4832 0 
75.7223 31.0239 0 
75.7796 33.9101 0 
74.4967 32.0839 0 
75.9518 37.3572 0 
75.7912 38.4023 0 
77.7825 1.05557 0 
77.733 39.6098 0 
78.9958 3.05222 0 
78.6555 5.59663 0 
78.6032 11.4113 0 
78.9385 18.2477 0 
78.8146 24.8495 0 
76.7986 27.5942 0 
78.038 30.5557 0 
76.8854 31.5115 0 
78.4249 32.2837 0 
77.7426 34.3606 0 
78.7497 34.9098 0 
76.7484 39.2234 0 
79.6001 2.50049 0 
80.0892 0.862008 0 
80.9114 1.50003 0 
80.022 1.61865 0 
81.274 4.48672 0 
81.133 3.13967 0 
81.7332 4.00885 0 
79.6274 5.49515 0 
79.7843 4.46056 0 
80.8371 5.05406 0 
81.2631 8.84929 0 
79.7679 9.86744 0 
81.6017 11.3694 0 
80.4104 9.80966 0 
81.161 11.4083 0 
81.138 15.1372 0 
79.9724 16.1409 0 
81.5739 17.0595 0 
80.5834 16.5008 0 
81.668 21.591 0 
80.2621 24.8932 0 
81.001 26.273 0 
80.1474 24.5577 0 
80.8455 27.4182 0 
80.9159 29.863 0 
79.1857 27.4853 0 
80.8312 30.5336 0 
79.5951 31.1926 0 
81.6153 31.2949 0 
80.4525 30.6948 0 
79.5725 29.2715 0 
81.1738 29.704 0 
80.1264 34.3497 0 
80.4062 33.4102 0 
81.1156 33.1276 0 
79.1533 32.0467 0 
79.2719 34.5315 0 
80.1437 35.7736 0 
79.4263 36.0647 0 
81.3457 34.5824 0 
79.4813 34.8192 0 
81.2018 34.6519 0 
81.7059 37.853 0 
80.8439 35.1796 0 
81.5034 37.9851 0 
80.7297 38.5986 0 
81.0626 38.2233 0 
82.2147 1.45993 0 
82.0916 0.211278 0 
83.4911 0.223111 0 
83.1393 1.2978 0 
82.8058 1.22434 0 
83.048 3.30299 0 
83.4305 3.71788 0 
81.9905 4.14176 0 
83.1637 3.89844 0 
82.6255 2.05756 0 
83.7841 2.45233 0 
83.4098 3.87523 0 
81.7017 5.57367 0 
82.7906 6.63009 0 
83.9208 5.51176 0 
84.0661 5.72177 0 
83.2586 4.71784 0 
82.3525 6.85519 0 
83.6874 9.39004 0 
82.2813 8.13873 0 
83.1112 7.81766 0 
81.422 9.17125 0 
83.7531 9.39423 0 
83.0691 9.39124 0 
83.0871 9.08166 0 
84.0612 9.30636 0 
82.101 7.65885 0 
83.0382 10.3588 0 
83.4415 12.1674 0 
83.5009 11.8537 0 
83.4334 10.003 0 
81.8841 10.9179 0 
82.7102 11.6907 0 
84.0171 13.9487 0 
83.8596 13.8915 0 
82.8928 14.0697 0 
84.0055 17.1621 0 
82.0088 15.6161 0 
83.1936 19.4838 0 
83.9241 17.9793 0 
82.9132 20.6274 0 
84.2256 19.8438 0 
82.9555 22.285 0 
83.5359 20.6027 0 
82.388 21.5533 0 
83.5237 21.0852 0 
82.1332 21.0519 0 
83.3139 22.0399 0 
82.424 21.8604 0 
82.6479 24.6739 0 
83.5736 24.1466 0 
83.219 21.5809 0 
81.7859 22.4987 0 
83.3835 24.9898 0 
81.6571 24.9836 0 
81.7731 25.7343 0 
82.5089 27.4817 0 
83.8755 24.9146 0 
83.8309 26.213 0 
81.9032 25.438 0 
82.9889 27.274 0 
83.1439 26.0617 0 
81.7459 27.0941 0 
83.5931 27.3666 0 
83.785 27.9266 0 
83.5981 29.0362 0 
82.5321 28.1062 0 
83.0676 26.9083 0 
81.5877 30.651 0 
82.9427 29.782 0 
82.8114 31.7712 0 
82.5399 31.5281 0 
84.1179 32.5724 0 
84.0082 29.3846 0 
83.1418 32.7124 0 
82.1679 31.2096 0 
83.5554 31.8083 0 
82.3103 33.914 0 
83.4826 32.7011 0 
83.9442 33.7825 0 
82.1297 32.9546 0 
83.7176 32.6806 0 
82.4905 33.348 0 
83.4006 33.5474 0 
83.6277 33.4941 0 
82.001 33.1534 0 
82.7534 33.4751 0 
83.8193 33.1432 0 
83.5962 34.4526 0 
83.4188 35.1398 0 
83.4117 35.6079 0 
83.3215 35.7446 0 
82.4322 35.4234 0 
83.6012 34.7511 0 
82.6311 36.2012 0 
83.5861 34.4652 0 
82.4135 36.6744 0 
82.811 35.719 0 
84.0201 36.7824 0 
82.4849 35.2343 0 
83.9048 38.4356 0 
81.882 38.2858 0 
83.0126 37.2204 0 
81.7319 37.0724 0 
84.2154 37.9252 0 
86.0082 0.729787 0 
84.1052 39.4203 0 
86.2654 1.05531 0 
84.8931 1.18837 0 
85.1249 39.3276 0 
85.7382 1.04058 0 
86.4634 0.706918 0 
86.1431 0.419167 0 
85.9088 0.634101 0 
86.2214 1.42666 0 
85.6502 0.157641 0 
84.5838 0.185669 0 
84.9024 1.10581 0 
84.4454 4.28075 0 
84.1745 3.29548 0 
85.5441 2.87971 0 
85.3435 3.84648 0 
84.9563 2.39488 0 
84.3432 4.7233 0 
84.6973 5.21345 0 
84.9636 4.12383 0 
85.7119 3.92256 0 
85.3147 2.24844 0 
86.4177 5.02297 0 
85.7048 2.88072 0 
85.0987 4.50146 0 
84.741 4.11356 0 
85.3875 3.11085 0 
85.9008 1.91673 0 
86.5428 3.5457 0 
84.9997 5.45723 0 
85.9225 4.96859 0 
85.0041 4.84673 0 
85.7107 6.14178 0 
85.3594 6.21541 0 
84.8611 6.53303 0 
84.7546 5.74258 0 
85.8408 6.9595 0 
86.1305 6.07202 0 
84.264 5.97954 0 
84.5335 5.10692 0 
85.1951 5.20259 0 
84.8781 5.62978 0 
85.0671 4.67402 0 
85.6366 5.42591 0 
85.2035 5.56867 0 
85.714 5.36299 0 
85.2576 4.66417 0 
86.3409 5.76478 0 
84.4966 7.03974 0 
86.4743 9.33606 0 
84.2647 9.28481 0 
85.9016 7.549 0 
84.2471 7.9085 0 
85.6486 7.12598 0 
86.3533 8.17442 0 
84.8825 8.92921 0 
85.9446 8.06649 0 
86.3316 7.37096 0 
86.1421 7.35978 0 
85.4763 9.19381 0 
85.8433 10.1246 0 
86.2196 9.77761 0 
86.253 11.1042 0 
84.4534 11.9563 0 
85.6642 10.5273 0 
86.05 11.5518 0 
84.147 10.5717 0 
84.8887 9.95192 0 
85.8247 11.4547 0 
85.7491 14.1169 0 
84.7591 14.0252 0 
85.5808 14.064 0 
86.238 14.6343 0 
84.1423 13.3976 0 
85.7637 13.228 0 
84.895 17.1552 0 
84.6223 16.0358 0 
85.8341 15.4771 0 
85.3793 17.1723 0 
85.3 14.9866 0 
84.6647 15.5953 0 
85.1269 15.654 0 
86.353 16.5622 0 
85.6951 16.8884 0 
84.3137 15.3439 0 
84.5396 16.8854 0 
86.2004 19.8074 0 
85.0507 18.9093 0 
85.1641 18.7491 0 
85.4729 18.2915 0 
85.6938 19.0869 0 
85.3686 19.821 0 
86.0845 19.58 0 
86.1221 21.3993 0 
84.8269 20.0842 0 
86.3047 20.0986 0 
86.0552 20.1549 0 
85.7104 21.3701 0 
85.8189 21.9006 0 
86.5133 21.1931 0 
85.9316 20.5552 0 
86.1904 21.8781 0 
86.214 22.6566 0 
85.761 21.7156 0 
86.4114 22.8868 0 
85.4092 22.2981 0 
85.7487 24.5432 0 
86.1089 22.133 0 
85.4281 23.9554 0 
86.6691 22.6441 0 
85.6633 21.7297 0 
85.1748 23.2153 0 
85.2737 25.9536 0 
83.9905 26.4757 0 
84.2881 26.2916 0 
85.3617 24.4098 0 
86.3764 27.5989 0 
85.3327 27.1538 0 
86.2823 26.4286 0 
84.8314 25.504 0 
85.4786 25.2208 0 
85.1945 26.9492 0 
85.7261 27.8695 0 
85.9826 28.3975 0 
86.5325 27.4632 0 
86.0316 28.4643 0 
85.2452 27.9599 0 
84.5613 29.1002 0 
86.099 27.23 0 
85.0554 26.9521 0 
85.2457 28.234 0 
85.6873 27.7837 0 
84.9308 27.4337 0 
84.8546 29.1588 0 
85.5101 28.6015 0 
86.0838 27.2737 0 
84.3868 29.6234 0 
85.0569 30.2975 0 
85.9493 29.6948 0 
85.7345 29.8717 0 
85.4431 29.6878 0 
85.9692 29.5502 0 
85.3223 30.2117 0 
84.9606 30.1026 0 
85.3655 32.5436 0 
85.7079 31.7812 0 
85.7152 31.7811 0 
85.7636 30.8306 0 
85.7379 30.6212 0 
84.8603 30.1296 0 
84.4718 30.997 0 
85.8951 30.2104 0 
84.4724 31.6284 0 
86.3038 32.7016 0 
86.2826 32.7145 0 
84.824 33.579 0 
84.5761 32.739 0 
85.703 32.3939 0 
84.0355 33.3528 0 
84.1149 32.4492 0 
84.7706 32.7722 0 
86.3017 33.7376 0 
85.5628 33.6491 0 
86.1515 34.7821 0 
84.9438 32.6237 0 
84.4615 32.8807 0 
85.7316 31.9387 0 
86.0865 33.6001 0 
86.1739 33.2136 0 
86.4608 33.1798 0 
85.5563 36.109 0 
86.1558 35.548 0 
84.7368 37.0231 0 
85.5009 36.6182 0 
86.231 35.969 0 
85.0063 35.5952 0 
84.8726 34.497 0 
86.2225 34.6052 0 
85.8838 36.552 0 
85.7804 35.6807 0 
85.2636 34.8623 0 
85.3499 34.6787 0 
86.1175 37.3363 0 
86.3789 37.9499 0 
85.001 1.3088 0 
84.8509 37.7448 0 
84.4598 37.2876 0 
86.5988 39.1389 0 
86.6484 37.2891 0 
84.265 38.941 0 
85.085 37.3274 0 
86.4987 37.252 0 
88.4241 0.599255 0 
88.2533 0.673406 0 
88.2569 0.243673 0 
88.8287 1.63739 0 
88.3034 0.805608 0 
87.7414 38.9474 0 
86.8932 1.05901 0 
86.5038 0.704885 0 
88.5446 39.9009 0 
88.1129 0.287266 0 
86.7306 0.00984045 0 
86.9087 0.0749536 0 
88.7318 1.72641 0 
87 1.99505 0 
88.7233 1.00603 0 
87.3857 0.701884 0 
87.6183 4.18152 0 
87.1506 3.81221 0 
88.8342 3.59343 0 
87.9483 2.98745 0 
87.9459 2.30746 0 
87.0172 2.23718 0 
88.3241 2.98083 0 
88.4907 3.88638 0 
88.1752 2.3063 0 
87.7829 2.35507 0 
88.0972 4.24288 0 
88.8076 2.23075 0 
87.6582 3.02394 0 
88.0308 3.37026 0 
86.6478 4.82503 0 
88.3685 5.67255 0 
88.9997 4.93043 0 
89.0717 6.09053 0 
87.914 5.96423 0 
87.6481 5.26903 0 
88.0495 6.23133 0 
86.6822 7.08242 0 
87.8019 5.25976 0 
87.9919 7.07985 0 
86.6496 5.40823 0 
89.1937 6.27658 0 
87.2859 6.98978 0 
87.1466 6.57772 0 
87.4823 5.66812 0 
89.2586 7.5222 0 
88.2052 8.52914 0 
86.8014 7.7175 0 
87.4019 7.85024 0 
87.9473 7.23389 0 
88.4399 8.24401 0 
88.9834 9.08129 0 
87.274 9.3405 0 
87.5265 9.23907 0 
86.9549 8.56745 0 
88.0511 9.6931 0 
87.559 9.3753 0 
89.2099 7.01905 0 
88.1867 8.67963 0 
87.2634 7.54489 0 
88.0688 8.77998 0 
88.7147 7.59249 0 
87.9083 11.069 0 
88.7992 11.7872 0 
88.4036 10.1285 0 
88.2001 10.1512 0 
88.0185 10.6458 0 
88.7861 10.7474 0 
88.1103 10.1745 0 
87.003 10.7399 0 
87.5258 11.5525 0 
89.0645 10.9799 0 
88.0272 11.8997 0 
88.0739 10.2628 0 
88.8939 12.2339 0 
88.7214 11.4446 0 
88.7285 11.9667 0 
87.3694 10.7575 0 
88.6659 10.0288 0 
88.2622 12.9295 0 
87.7814 14.4682 0 
88.6499 13.6105 0 
86.8817 13.3771 0 
87.1741 14.3989 0 
87.1323 14.5472 0 
88.306 14.7659 0 
88.7346 13.4257 0 
87.4559 12.6542 0 
87.2204 12.8681 0 
87.8714 13.1986 0 
87.6502 14.3646 0 
88.7258 13.2365 0 
88.9021 14.2383 0 
87.0249 13.4931 0 
86.8518 13.1648 0 
87.2749 12.7195 0 
88.7353 13.8663 0 
87.4565 13.6846 0 
88.4152 12.8755 0 
87.8331 12.9731 0 
87.1561 16.0852 0 
88.635 16.0629 0 
88.6559 16.6857 0 
87.0818 15.1725 0 
89.1063 16.5995 0 
88.7922 15.8617 0 
87.0222 17.0833 0 
88.4575 16.779 0 
86.9971 17.0047 0 
87.0469 16.9272 0 
88.4675 16.6018 0 
88.2104 16.8476 0 
87.7689 14.8475 0 
87.1021 16.8512 0 
88.2661 15.7209 0 
87.1692 17.0877 0 
87.7513 18.672 0 
87.1673 17.819 0 
86.8367 18.8587 0 
88.5375 19.225 0 
86.8351 19.9754 0 
87.0757 18.1131 0 
88.8055 19.006 0 
88.2525 17.6967 0 
88.8709 18.1681 0 
88.4662 18.3739 0 
88.3283 19.5704 0 
88.0571 18.9513 0 
87.7786 21.557 0 
87.9317 20.8581 0 
87.8061 20.8172 0 
88.4227 21.2658 0 
88.5028 18.9289 0 
89.1317 20.3014 0 
86.8484 22.5072 0 
88.5893 22.6234 0 
88.7061 20.0326 0 
87.7623 20.3928 0 
87.4559 23.6668 0 
88.7664 22.3455 0 
88.1871 22.5434 0 
87.5162 23.1871 0 
87.166 23.8888 0 
87.6244 23.2804 0 
88.6838 23.9283 0 
86.7689 23.9635 0 
[...]
      <PointData Vectors="vector">
        <DataArray type="Float32" Name="Velocity" NumberOfComponents="3" format="ascii">

-247.14 -185.82 0 
-231.477 -103.832 0 
-204.114 -67.0263 0 
-217.522 -134.619 0 
-213.062 -121.912 0 
-180.913 -28.5737 0 
-198.753 -7.26016 0 
-175.898 36.9223 0 
-207.37 -117.061 0 
-222.704 -121.376 0 
-222.551 -80.1045 0 
-173.102 66.7146 0 
-196.919 -77.2813 0 
-214.287 -93.8522 0 
-177.869 -66.2933 0 
-179.597 83.8048 0 
-179.576 -50.705 0 
-154.697 -52.1692 0 
-145.43 101.238 0 
-174.476 -42.4105 0 
-140.301 100.355 0 
-131.133 115.223 0 
-169.702 -31.2781 0 
-175.449 10.8143 0 
-176.252 4.72992 0 
-181.028 -145.39 0 
-185.973 -162.578 0 
-177.457 -133.79 0 
-204.483 -140.817 0 
-210.793 -95.0921 0 
-199.621 -118.988 0 
-216.207 -132.774 0 
-184.968 -123.903 0 
-224.003 -114.706 0 
-186.073 -96.3021 0 
-197.104 -87.0476 0 
-232.791 -84.9286 0 
-158.178 -55.1432 0 
-143.996 95.3868 0 
-173.599 -102.363 0 
-193.325 -82.1285 0 
-239.798 -85.5249 0 
-193.33 -58.5639 0 
-211.64 -103.839 0 
-140.649 98.9544 0 
-182.406 -44.121 0 
-207.191 -59.5536 0 
-174.365 -51.2544 0 
-210.08 -55.0563 0 
-228.881 -79.815 0 
-141.719 97.5676 0 
-191.886 -39.5827 0 
-189.047 -46.2127 0 
-188.493 -64.5538 0 
-135.207 73.1708 0 
-187.068 -5.4996 0 
-201.133 -42.209 0 
-170.204 -3.91875 0 
-146.192 -17.2533 0 
-202.885 -19.7271 0 
-255.559 -156.972 0 
-146.946 26.8493 0 
-178.399 -161.466 0 
-163.933 7.37857 0 
-172.482 -136.753 0 
-233.793 -170.154 0 
-173.959 -8.07202 0 
-201.529 -132.684 0 
-248.938 -137.466 0 
-242.602 -141.133 0 
-182.965 -126.305 0 
-206.628 -140.854 0 
-191.981 -154.699 0 
-174.288 24.7021 0 
-205.636 -161.52 0 
-244.656 -95.7109 0 
-171.102 -132.927 0 
-170.925 -130.447 0 
-174.942 65.7492 0 
-178.202 -86.0382 0 
-255.097 -128.288 0 
-245.903 -89.1702 0 
-204.931 45.9235 0 
-179.924 -128.088 0 
-171.187 -97.4278 0 
-191.409 -100.006 0 
-206.408 -144.507 0 
-214.54 -128.858 0 
-171.901 -102.501 0 
-198.531 -84.6659 0 
-223.276 -87.2808 0 
-169.514 -104.983 0 
-196.717 -86.7651 0 
-193.596 -121.75 0 
-209.046 -77.2091 0 
-183.26 -59.3179 0 
-171.643 -34.7184 0 
-180.207 -78.517 0 
-126.162 71.5576 0 
-193.113 -52.1068 0 
-170.691 -52.5827 0 
-209.046 -125.375 0 
-176.05 -98.095 0 
-160.176 -67.4577 0 
-197.2 -107.432 0 
-162.883 -55.0907 0 
-188.76 -74.948 0 
-159.962 -89.8705 0 
-227.805 -127.962 0 
-161.589 68.1351 0 
-179.916 -48.5697 0 
-194.157 -92.7374 0 
-152.007 81.9687 0 
-220.804 -72.4485 0 
-169.908 -89.5188 0 
-198.166 -94.7473 0 
-186.462 -92.159 0 
-229.84 -74.0387 0 
-168.326 -60.8646 0 
-195.335 -80.5397 0 
-229.414 -87.38 0 
-158.564 60.4956 0 
-197.971 -85.1848 0 
-142.466 -48.6544 0 
-180.813 -76.0876 0 
-163.928 -87.5633 0 
-225.549 -49.3919 0 
-177.576 -45.5919 0 
-192.964 -60.2933 0 
-199.027 -61.675 0 
-207.613 -84.672 0 
-159.257 -49.9352 0 
-171.011 -50.5346 0 
-198.17 -55.0707 0 
-122.105 81.8488 0 
-167.023 -55.9763 0 
-191.655 -50.6074 0 
-174.325 -78.1723 0 
-182.392 -79.3287 0 
-197.269 -57.3562 0 
-161.861 -16.6694 0 
-227.148 -13.5702 0 
-213.253 -58.8697 0 
-198.47 -60.0245 0 
-204.59 -16.3118 0 
-195.985 1.36619 0 
-171.28 -2.76108 0 
-165.601 138.43 0 
-137.798 118.896 0 
-180.019 -34.9375 0 
-189.088 -7.50463 0 
-196.536 27.3929 0 
-193.503 -0.932795 0 
-223.134 19.9828 0 
-191.609 -22.6624 0 
-174.609 -7.45035 0 
-178.266 4.91451 0 
-129.743 -156.032 0 
-132.096 1.21751 0 
-145.326 16.9445 0 
-219.34 -212.819 0 
-225.474 -159.064 0 
-185.259 -158.288 0 
-165.629 8.25006 0 
-190.143 -178.362 0 
-172.291 22.531 0 
-232.543 -191.581 0 
-211.682 -175.515 0 
-130.773 16.2473 0 
-200.332 -165.968 0 
-172.495 6.72497 0 
-225.965 -119.369 0 
-232.786 -110.096 0 
-118.61 17.1381 0 
-196.592 -161.73 0 
-156.434 24.1013 0 
-200.691 -146.092 0 
-148.469 24.4176 0 
-204.723 -1.83143 0 
-216.277 -152.62 0 
-194.884 -150.351 0 
-244.851 -95.7833 0 
-198.861 -155.42 0 
-186.232 -137.767 0 
-151.574 9.94411 0 
-183.672 22.5414 0 
-175.405 -107.713 0 
-177.683 -125.2 0 
-173.97 13.7556 0 
-238.604 -84.7872 0 
-253.165 -129.91 0 
-246.984 -141.26 0 
-183.81 -136.98 0 
-126.784 -147.144 0 
-160.613 -94.5707 0 
-193.954 -106.58 0 
-171.887 -142.784 0 
-129.553 23.2458 0 
-173.498 -133.618 0 
-156.096 -131.407 0 
-155.384 36.5845 0 
-180.942 10.4263 0 
-208.212 -104.168 0 
-196.428 -119.769 0 
-148.292 38.7286 0 
-136.759 -118.5 0 
-204.134 -116.831 0 
-202.293 -113.546 0 
-192.16 23.2493 0 
-187.418 -158.844 0 
-168.924 -127.643 0 
-177.105 -152.333 0 
-166.67 -97.7278 0 
-167.274 -99.9923 0 
-211.916 -52.6914 0 
-149.304 -61.6665 0 
-180.533 -55.1343 0 
-172.145 -80.5774 0 
-176.848 -98.2501 0 
-160.216 92.72 0 
-174.311 -126.082 0 
-161.011 60.6732 0 
-189.163 -111.439 0 
-181.694 -86.8178 0 
-202.972 -78.5317 0 
-209.676 -89.9616 0 
-169.472 -79.6081 0 
-155.702 62.9035 0 
-168.619 -109.501 0 
-124.983 85.6487 0 
-263.463 -122.078 0 
-205.681 -67.8548 0 
-165.158 -101.137 0 
-149.849 98.3121 0 
-169.152 -68.2571 0 
-191.005 -54.4889 0 
-167.698 -98.5609 0 
-199.649 -80.2216 0 
-193.569 -117.406 0 
-158.658 -63.2531 0 
-162.831 -112.779 0 
-136.321 52.711 0 
-188.095 -107.708 0 
-164.653 -86.0671 0 
-172.466 -122.813 0 
-186.842 -105.404 0 
-233.441 -78.8988 0 
-220.413 -57.3497 0 
-188.333 -97.2015 0 
-193.044 -51.4884 0 
-194.337 -106.642 0 
-203.007 -63.9869 0 
-203.392 -92.9687 0 
-221.971 -115.813 0 
-191.64 -93.0644 0 
-204.888 -109.523 0 
-122.645 106.944 0 
-155.879 -93.303 0 
-167.577 -83.7302 0 
-163.195 -56.197 0 
-204.45 -71.55 0 
-204.311 -79.6513 0 
-195.215 -46.5825 0 
-200.603 -77.4041 0 
-208.832 -75.7214 0 
-192.657 -39.806 0 
-158.725 78.0885 0 
-239.574 -101.219 0 
-227.241 -103.307 0 
-196.84 -92.143 0 
-198.418 -60.8847 0 
-200.775 -52.466 0 
-163.5 -57.9948 0 
-179.925 108.769 0 
-163.992 -90.5402 0 
-188.125 -16.5419 0 
-160.113 -83.7322 0 
-180.11 -52.6629 0 
-154.415 -77.3153 0 
-196.479 -54.615 0 
-212.549 -59.8041 0 
-149.786 -74.2194 0 
-129.783 103.285 0 
-141.279 97.4231 0 
-198.215 -78.3805 0 
-180.91 -67.1256 0 
-170.034 -38.6313 0 
-183.682 -81.8764 0 
-165.628 -19.7803 0 
-235.353 -51.9462 0 
-194.601 -52.6248 0 
-203.955 -26.0601 0 
-186.284 -39.5075 0 
-145.75 -72.8141 0 
-183.339 -29.5258 0 
-202.759 -43.9583 0 
-132.66 110.035 0 
-191.713 -60.4412 0 
-183.751 -26.5692 0 
-154.621 -39.4319 0 
-196.746 -69.7604 0 
-139.202 -51.5605 0 
-218.199 -50.1421 0 
-159.146 -31.5051 0 
-183.142 -35.6381 0 
-178.665 -59.0922 0 
-185.654 -65.4952 0 
-168.301 -46.4018 0 
-184.606 23.5942 0 
-191.826 -2.57691 0 
-187.289 -21.1321 0 
-176.314 -29.7947 0 
-197.994 14.5281 0 
-210.76 -14.8427 0 
-185.586 -39.5195 0 
-210.352 -4.03921 0 
-181.415 -1.78091 0 
-217.933 -10.1305 0 
-180.611 -9.76829 0 
-202.696 -26.149 0 
-201.849 -169.368 0 
-201.138 -194.072 0 
-194.857 10.5431 0 
-152.386 22.6168 0 
-140.363 1.0712 0 
-129.463 13.0593 0 
-186.453 -25.8456 0 
-169.212 -16.5129 0 
-140.891 -12.3197 0 
-165.643 -39.1872 0 
-207.983 3.66456 0 
-201.724 -154.314 0 
-200.067 -138.349 0 
-194.699 -180.083 0 
-171.955 -196.464 0 
-170.029 -168.993 0 
-195.802 -200.712 0 
-185.404 -166.851 0 
-162.817 -166.748 0 
-165.999 -2.11542 0 
-176.465 14.0495 0 
-174.352 -180.735 0 
-188.6 -187.497 0 
-162.081 -173.841 0 
-178.891 -177.087 0 
-205.032 -154.892 0 
-193.632 -147.498 0 
-206.934 -175.61 0 
-229.26 -153.18 0 
-192.29 -190.604 0 
-200.828 -197.355 0 
-157.009 11.7189 0 
-92.6446 20.9853 0 
-143.181 -146.268 0 
-164.484 58.8686 0 
-138.559 0.64638 0 
-220.431 -171.478 0 
-184.605 -128.338 0 
-159.75 -160.72 0 
-230.234 -133.675 0 
-210.575 -125.659 0 
-168.817 -145.469 0 
-188.694 -188.088 0 
-150.001 -146.891 0 
-196.275 -175.416 0 
-179.689 -187.065 0 
-159.183 -18.4539 0 
-113.375 36.5028 0 
-179.978 -162.204 0 
-175.179 -182.015 0 
-126.499 19.6738 0 
-163.557 -163.511 0 
-218.298 -136.499 0 
-219.166 -145.258 0 
-211.242 -129.727 0 
-216.643 -92.4983 0 
-214.973 -121.014 0 
-196.774 -116.079 0 
-237.879 -154.736 0 
-206.388 -144.403 0 
-230.182 -126.38 0 
-185.864 -161.6 0 
-150.173 16.0161 0 
-163.801 -156.022 0 
-135.313 34.4663 0 
-167.192 18.306 0 
-232.106 -154.794 0 
-213.063 -123.906 0 
-225.381 -113.768 0 
-225.303 -110.183 0 
-207.288 -115.822 0 
-228.482 -130.81 0 
-193.043 -102.957 0 
-190.705 -106.487 0 
-228.498 -117.987 0 
-108.488 47.5284 0 
-189.706 41.8809 0 
-204.482 -141.516 0 
-168.568 21.3253 0 
-175.006 -25.1658 0 
-136.968 -126.39 0 
-213.984 -115.135 0 
-208.937 -163.139 0 
-183.134 -126.384 0 
-159.668 -138.767 0 
-199.434 -158.395 0 
-137.329 40.0687 0 
-205.326 -144.328 0 
-136.721 3.40315 0 
-211.812 -147.614 0 
-174.38 -83.4153 0 
-211.865 -120.935 0 
-212.812 -97.5766 0 
-165.964 -162.61 0 
-171.737 35.5224 0 
-190.793 -146.419 0 
-153.986 -126.37 0 
-152.518 -113.647 0 
-179.074 -131.847 0 
-184.373 -135.248 0 
-190.478 -111.84 0 
-175.87 -167.683 0 
-168.781 43.2202 0 
-144.363 -115.761 0 
-203.084 -116.421 0 
-192.971 -127.739 0 
-206.896 -132.995 0 
-156.336 -121.559 0 
-193.075 -107.261 0 
-225.32 -129.912 0 
-199.43 -130.132 0 
-168.728 -105.239 0 
-164.522 -130.509 0 
-175.409 -129.296 0 
-201.195 -78.2255 0 
-162.922 -90.0588 0 
-192.343 -106.355 0 
-175.215 -93.0757 0 
-160.475 -96.9347 0 
-162.862 -85.1615 0 
-173.095 -121.552 0 
-147.456 53.6414 0 
-143.451 44.8051 0 
-190.394 -90.0782 0 
-164.078 44.5396 0 
-188.806 -118.919 0 
-199.265 -93.0147 0 
-177.856 -122.216 0 
-141.807 26.9292 0 
-192.679 -124.548 0 
-226.376 -74.2683 0 
-212.57 -95.0892 0 
-211.226 -65.4505 0 
-215.139 -81.595 0 
-162.277 -106.896 0 
-169.181 -107.297 0 
-149.436 -133.281 0 
-207.4 -71.1413 0 
-208.48 -95.9108 0 
-216.66 -104.157 0 
-211.608 -98.2836 0 
-205.967 -109.068 0 
-188.484 -90.5071 0 
-215.157 -105.353 0 
-157.032 -100.5 0 
-178.529 -96.3055 0 
-200.597 -87.3438 0 
-149.948 -81.5417 0 
-201.847 -75.8315 0 
-187.967 -69.6644 0 
-192.173 -84.7408 0 
-171.747 -82.9226 0 
-200.463 -93.2345 0 
-156.365 -94.1144 0 
-176.601 -72.1626 0 
-147.725 -67.9782 0 
-148.723 -104.074 0 
-157.533 -122.357 0 
-190.599 -100.109 0 
-170.801 -115.566 0 
-205.411 -90.0717 0 
-201.529 -73.2752 0 
-126.222 51.0027 0 
-184.223 -107.175 0 
-165.484 -131.628 0 
-206.761 -116.902 0 
-139.461 -64.9837 0 
-154.89 -102.132 0 
-180.288 -103.995 0 
-219.258 -96.1092 0 
-205.309 -65.4475 0 
-159.915 -57.7744 0 
-162.901 -80.9955 0 
-173.248 -100.933 0 
-129.748 -100.95 0 
-170.149 -91.7427 0 
-169.633 -77.8406 0 
-187.116 -63.3888 0 
-198.339 -82.2868 0 
-138.591 -102.448 0 
-185.304 -69.2532 0 
-154.031 -80.2097 0 
-161.874 -106.375 0 
-139.73 -60.2761 0 
-183.731 -84.9965 0 
-169.819 -94.3751 0 
-185.588 -79.7012 0 
-205.117 -91.3661 0 
-170.139 -54.461 0 
-143.571 -44.1229 0 
-135.841 -100.043 0 
-147.051 -73.7131 0 
-154.755 -111.94 0 
-149.3 -68.1803 0 
-161.777 -75.4151 0 
-159.458 -85.246 0 
-175.252 -61.5634 0 
-155.242 -74.514 0 
-144.841 -36.8877 0 
-200.928 -54.4663 0 
-139.27 -87.0996 0 
-154.951 -52.4927 0 
-160.729 -48.7895 0 
-160.496 -64.377 0 
-203.653 -32.6737 0 
-194.204 -41.1438 0 
-154.017 -40.4083 0 
-182.019 -86.6763 0 
-165.377 -49.5488 0 
-198.022 -66.0354 0 
-99.8744 111.575 0 
-175.873 -44.7779 0 
-164.164 -79.1931 0 
-208.191 18.0801 0 
-210.612 -36.6783 0 
-224.802 -66.0404 0 
-156.176 -54.533 0 
-152.044 -50.262 0 
-204.658 -68.3248 0 
-199.694 -19.7984 0 
-192.538 -66.6744 0 
-196.628 -66.6549 0 
-162.285 -77.5722 0 
-135.524 -56.9195 0 
-213.145 -94.4314 0 
-166.854 -26.1863 0 
-185.02 -75.1111 0 
-169.174 -90.477 0 
-144.244 -74.7522 0 
-156.253 121.024 0 
-191.28 -38.9789 0 
-157.311 110.423 0 
-142.656 -76.2467 0 
-197.792 -34.8774 0 
-179.495 18.9023 0 
-186.189 -28.4177 0 
-158.764 -24.6655 0 
-143.27 -50.3236 0 
-166.349 -39.6371 0 
-148.453 -57.1323 0 
-186.526 -70.7746 0 
-202.49 -31.4704 0 
-192.152 -42.5529 0 
-198.456 -15.4838 0 
-190.549 -40.7652 0 
-192.135 -54.5917 0 
-145.782 122.259 0 
-213.577 -63.7548 0 
-147.44 -29.8935 0 
-168.042 -55.4027 0 
-175.109 -58.4607 0 
-187.814 -183.328 0 
-173.408 18.3814 0 
-251.996 -7.15287 0 
-161.618 -18.9958 0 
-174.53 13.2378 0 
-166.83 25.2133 0 
-162.048 5.69413 0 
-154.188 10.9191 0 
-161.351 -55.1055 0 
-157.652 40.9187 0 
-152.315 -6.66264 0 
-181.861 22.1256 0 
-128.097 -38.0952 0 
-166.91 9.63097 0 
-177.188 5.3959 0 
-165.004 -32.0945 0 
-174.734 -10.4427 0 
-203.639 -0.938339 0 
-193.843 -145.873 0 
-196.898 -136.292 0 
-183.065 -8.07324 0 
-151.697 -22.2175 0 
-199.52 -243.723 0 
-188.369 -38.3472 0 
-142.216 -35.5541 0 
-144.75 43.8617 0 
-198.888 -200.931 0 
-145.677 2.9329 0 
-174.303 19.5426 0 
-165.372 24.1319 0 
-144.467 -184.748 0 
-229.6 -178.659 0 
-225.105 -192.339 0 
-165.691 -148.503 0 
-210.321 24.1689 0 
-124.434 -130.185 0 
-196.057 -201.406 0 
-197.071 -210.666 0 
-168.937 -157.367 0 
-218.336 -170.666 0 
-150.936 -184.035 0 
-196.057 -162.193 0 
-188.733 16.7179 0 
-215.555 -181.454 0 
-170.912 -27.7942 0 
-146.352 -195.117 0 
-209.572 -112.93 0 
-157.492 -166.787 0 
-201.929 -166.208 0 
-198.235 -134.429 0 
-196.606 -194.714 0 
-225.729 -147.158 0 
-181.122 -140.918 0 
-156.994 -187.285 0 
-146.187 -195.447 0 
-109.577 -4.04388 0 
-120.755 -153.938 0 
-152.357 -196.219 0 
-191.138 32.5087 0 
-164.02 -185.654 0 
-127.86 9.91972 0 
-129.868 -174.601 0 
-140.447 58.1215 0 
-178.622 -171.322 0 
-133.518 -172.175 0 
-208.528 -151.866 0 
-150.762 -156.081 0 
-176.471 -176.787 0 
-197.172 -183.101 0 
-223.295 -156.691 0 
-194.57 -146.467 0 
-182.298 -149.895 0 
-205.867 -133.866 0 
-180.225 -141.668 0 
-206.026 -160.871 0 
-171.811 -137.478 0 
-214.483 -139.44 0 
-186.864 -158.285 0 
-203.976 -119.355 0 
-200.786 -178.632 0 
-153.62 -186.762 0 
-162.04 -33.9748 0 
-184.742 -156.222 0 
-209.278 -140.042 0 
-166.309 -174.484 0 
-192.576 -160.124 0 
-181.426 -159.814 0 
-122.015 -150.224 0 
-180.014 -157.353 0 
-166.214 -184.534 0 
-150.311 -131.687 0 
-211.012 -154.844 0 
-172.649 -101.513 0 
-167.771 -155.196 0 
-90.8709 16.4097 0 
-173.596 -141.064 0 
-162.137 -162.476 0 
-192.916 -134.711 0 
-142.103 25.2966 0 
-180.393 -165.768 0 
-183.861 -185.228 0 
-134.916 -110.933 0 
-158.535 -136.524 0 
-161.503 -152.399 0 
-165.107 -136.291 0 
-163.585 44.2303 0 
-176.701 -162.785 0 
-198.716 -166.78 0 
-176.14 -137.012 0 
-196.39 -160.694 0 
-177.229 -146.753 0 
-214.182 -175.429 0 
-156.036 -160.79 0 
-188.013 -113.747 0 
-196.075 -124.282 0 
-174.884 -134.962 0 
-223.155 -136.685 0 
-182.457 -85.1176 0 
-201.613 -128.351 0 
-176.851 -148.841 0 
-170.529 -114.554 0 
-231.187 -147.924 0 
-230.162 -136.729 0 
-167.046 -103.059 0 
-163.32 -135.07 0 
-200.493 -152.746 0 
-171.311 -139.494 0 
-188.747 -103.565 0 
-161.558 -137.393 0 
-177.313 -111.594 0 
-179.635 -144.996 0 
-173.063 -160.737 0 
-202.963 -126.178 0 
-188.119 -150.891 0 
-144.75 -158.695 0 
-193.264 -150.945 0 
-157.497 -120.476 0 
-162.319 -135.121 0 
-160.39 -138.299 0 
-165.895 -111.542 0 
-141.317 15.9505 0 
-138.81 -4.50921 0 
-205.948 -153.994 0 
-172.105 -171.087 0 
-178.585 -140.317 0 
-199.895 -100.805 0 
-194.338 -111.922 0 
-178.801 -140.554 0 
-191.607 -107.775 0 
-185.149 -127.036 0 
-205.602 -119.358 0 
-199.153 -103.266 0 
-130.652 50.3401 0 
-161.078 -112.253 0 
-161.742 -141.566 0 
-153.562 30.9541 0 
-186.424 -164.936 0 
-205.42 -139.891 0 
-178.244 -139.942 0 
-180.981 -137.14 0 
-155.948 -130.344 0 
-190.131 -157.576 0 
-205.363 -122.579 0 
-199.261 -161.531 0 
-132.409 21.1248 0 
-160.712 -130.405 0 
-105.151 -130.294 0 
-188.258 -124.798 0 
-167.076 -126.165 0 
-136.789 -9.51149 0 
-205.594 -122.041 0 
-186.856 -105.584 0 
-180.558 -77.0407 0 
-171.682 -102.986 0 
-205.934 -86.0021 0 
-240.171 -65.0383 0 
-202.054 -109.945 0 
-156.266 -96.8946 0 
-183.112 -81.3002 0 
-189.583 -124.618 0 
-162.867 -102.155 0 
-193.339 -116.561 0 
-195.726 -162.707 0 
-198.101 -98.7038 0 
-196.606 -101.904 0 
-156.637 -65.3318 0 
-137.466 -120.24 0 
-163.453 -148.691 0 
-155.443 -107.662 0 
-172.859 -86.7855 0 
-193.315 -110.736 0 
-175.42 -98.6719 0 
-204.252 -99.5552 0 
-184.283 -93.8188 0 
-184.655 -117.903 0 
-179.148 -127.947 0 
-154.739 -114.569 0 
-175.459 -125.237 0 
-170.152 -73.405 0 
-205.281 -52.659 0 
-197.209 -96.702 0 
-205.007 -91.2792 0 
-134.068 54.2397 0 
-173.914 -116.874 0 
-167.995 -100.001 0 
-185.64 -102.87 0 
-177.56 -97.527 0 
-175.157 -88.0188 0 
-191.854 -86.62 0 
-147.493 -92.1114 0 
-185.421 -94.2654 0 
-206.336 -80.5258 0 
-177.8 -112.328 0 
-133.248 -109.506 0 
-163.031 -101.047 0 
-142.737 -75.468 0 
-182.396 -81.1533 0 
-106.857 85.8821 0 
-142.327 -72.7791 0 
-142.829 -129.511 0 
-185.383 -104.816 0 
-175.197 -79.5524 0 
-194.327 -141.583 0 
-136.459 -105.644 0 
-176.461 -129.106 0 
-176.484 -126.321 0 
-150.74 -91.2529 0 
-157.581 -99.798 0 
-142.465 -99.9454 0 
-180.231 -99.8611 0 
-159.541 -106.197 0 
-160.92 -138.494 0 
-217.334 -114.123 0 
-178.177 -100.117 0 
-157.014 -75.9277 0 
-196.401 -107.658 0 
-163.255 -88.951 0 
-160.547 -69.3768 0 
-162.57 -121.837 0 
-125.528 -117.211 0 
-102.558 63.3058 0 
-148.254 -108.457 0 
-202.532 -99.1905 0 
-179.678 -94.5273 0 
-182.953 -114.682 0 
-202.305 -115.36 0 
-152.26 -115.176 0 
-190.956 -116.237 0 
-224.565 -79.8865 0 
-145.968 -108.575 0 
-204.995 -98.1974 0 
-202.13 -60.17 0 
-190.772 -109.203 0 
-211.299 -77.5533 0 
-191.616 -56.4427 0 
-187.854 -70.4407 0 
-119.164 -82.2326 0 
-164.119 -88.0162 0 
-113.35 81.086 0 
-163.763 -72.892 0 
-204.314 -104.785 0 
-138.322 -94.2771 0 
-187.653 -98.1245 0 
-127.381 -68.811 0 
-154.223 -118.536 0 
-233.39 -70.1528 0 
-181.904 -117.542 0 
-138.064 -70.4324 0 
-159.416 -107.681 0 
-163.324 -121.039 0 
-197.26 -93.5916 0 
-162.533 -112.666 0 
-135.818 -110.62 0 
-161.323 -86.9186 0 
-189.148 -82.3733 0 
-159.666 -74.7073 0 
-213.159 -54.1195 0 
-135.961 -98.5135 0 
-141.826 -138.05 0 
-179.382 -93.8127 0 
-192.675 -101.211 0 
-160.439 -110.565 0 
-199.342 -103.949 0 
-160.754 -111.137 0 
-195.023 -91.6301 0 
-160.15 -76.7075 0 
-191.392 -100.787 0 
-178.559 -96.718 0 
-208.326 -77.2314 0 
-158.709 -104.097 0 
-135.881 -115.056 0 
-167.519 -80.4507 0 
-156.302 -89.9632 0 
-181.946 -111.095 0 
-169.041 -99.9289 0 
-169.547 -62.7185 0 
-164.617 -74.394 0 
-192.165 -99.3789 0 
-167.856 -24.9938 0 
-162.502 -29.6088 0 
-210.35 -73.7766 0 
-194.747 -77.139 0 
-180.02 -65.8055 0 
-149.271 -51.2593 0 
-200.257 -43.9826 0 
-192.605 -55.9875 0 
-182.572 70.6563 0 
-164.656 -110.885 0 
-182.736 -87.2087 0 
-176.118 -66.6209 0 
-188.059 -77.2996 0 
-196.029 -55.8942 0 
-168.063 -69.7454 0 
-209.276 -118.903 0 
-118.588 112.943 0 
-181.54 -66.2944 0 
-149.703 -93.5823 0 
-187.082 -42.8651 0 
-145.772 -70.4525 0 
-172.346 -38.2582 0 
-189.395 -49.349 0 
-192.973 -82.4847 0 
-164.462 -91.0976 0 
-158.664 -90.5183 0 
-182.389 -96.094 0 
-205.635 -63.8837 0 
-173.911 -33.2278 0 
-166.17 -110.008 0 
-168.616 -62.4574 0 
-207.619 -66.5755 0 
-230.976 -79.2832 0 
-134.964 76.6142 0 
-126.883 -64.8224 0 
-171.784 -29.2967 0 
-129.08 -58.6586 0 
-154.906 -76.9618 0 
-158.343 -67.6548 0 
-180.316 -44.5293 0 
-121.279 -88.299 0 
-169.074 -26.1603 0 
-157.573 -89.7675 0 
-194.664 -48.9395 0 
-195.91 -99.0838 0 
-140.103 -48.7851 0 
-161.977 -77.0727 0 
-153.211 -35.5064 0 
-183.544 -203.99 0 
-160.139 -199.796 0 
-180.805 -58.5783 0 
-148.141 -58.3349 0 
-131.163 -72.8983 0 
-152.661 -100.059 0 
-154.593 -31.8809 0 
-186.376 -76.5181 0 
-172.005 -95.8302 0 
-136.086 -61.6396 0 
-157.292 -35.5214 0 
-180.848 38.5111 0 
-178.107 -53.0191 0 
-135.718 -78.5718 0 
-193.236 -37.4662 0 
-181.203 -18.9374 0 
-190.012 -197.245 0 
-153.28 -51.7589 0 
-191.488 20.7589 0 
-158.959 -68.8271 0 
-146.549 -39.5341 0 
-161.997 -39.1375 0 
-150.281 -60.3881 0 
-192.966 -48.2224 0 
-196.303 -20.3111 0 
-181.681 -54.285 0 
-175.415 -50.5042 0 
-153.885 -59.3811 0 
-129.05 -18.7595 0 
-143.162 -45.3154 0 
-137.695 -37.6299 0 
-164.457 -44.5979 0 
-176.705 -57.3946 0 
-173.64 -49.2247 0 
-174.144 -48.2876 0 
-166.19 -40.6926 0 
-196.674 -26.6115 0 
-172.402 -150.844 0 
-137.924 -22.6935 0 
-146.989 -9.79863 0 
-154.551 5.39414 0 
-178.879 6.41256 0 
-195.185 -21.5013 0 
-182.976 -60.0388 0 
-180.679 -49.0966 0 