<VTKFile type="UnstructuredGrid" version="0.1" byte_order="BigEndian">
  <UnstructuredGrid>
        <Piece NumberOfPoints="8000" NumberOfCells="0" Time= "0.5">      <Points>
        <DataArray name="Position" type="Float32"  NumberOfComponents= "3"  format="ascii">

23.7909 32.4799 0 
28.4443 11.9192 0 
27.9737 14.4503 0 
30.9209 2.75822 0 
31.2301 5.77068 0 
32.9577 0.0212463 0 
32.2194 0.782282 0 
32.0454 7.0738 0 
33.495 18.6902 0 
33.0933 25.4634 0 
33.0229 30.6511 0 
31.1671 31.7872 0 
32.7336 36.8686 0 
34.0464 0.714534 0 
34.9826 0.730757 0 
35.5797 39.8046 0 
34.5797 3.00798 0 
33.77 3.75537 0 
34.8601 4.59786 0 
35.5564 6.67255 0 
33.9918 8.88072 0 
34.3197 9.48921 0 
33.6324 11.02 0 
35.9493 9.73728 0 
36.0968 11.2394 0 
34.7637 12.9712 0 
35.7428 14.4394 0 
35.1374 16.5778 0 
35.2971 15.2133 0 
35.1857 18.7535 0 
35.6901 19.1361 0 
34.8606 21.9505 0 
35.004 19.8047 0 
35.9931 22.0811 0 
36.2065 23.2227 0 
35.1686 24.904 0 
34.3669 24.2451 0 
35.9901 28.6831 0 
34.4114 27.522 0 
34.9354 32.1689 0 
33.6653 31.2357 0 
35.5798 33.9463 0 
35.9827 33.8864 0 
36.189 34.083 0 
35.034 35.072 0 
34.6919 34.7751 0 
35.9903 34.6946 0 
34.169 39.0791 0 
38.2177 0.790355 0 
37.2194 0.073026 0 
38.2937 39.2738 0 
38.2079 0.77682 0 
37.6321 0.879683 0 
37.7611 0.808325 0 
37.9908 4.43665 0 
37.7336 2.8752 0 
38.0205 3.7121 0 
37.1857 2.4294 0 
36.4407 4.71536 0 
38.1108 6.39577 0 
37.1382 6.43917 0 
37.8886 5.8478 0 
36.5023 7.76208 0 
38.4362 9.48021 0 
37.231 9.31845 0 
38.6355 8.04694 0 
36.3488 12.7551 0 
36.8598 12.1843 0 
38.1211 14.2107 0 
37.0829 14.5218 0 
37.8589 16.4047 0 
38.8835 20.0073 0 
37.3686 17.3004 0 
37.9471 20.3512 0 
37.3242 20.9945 0 
37.9408 21.8959 0 
38.021 22.1852 0 
36.9941 23.9222 0 
37.4884 26.007 0 
38.3614 24.9776 0 
38.2389 26.0848 0 
38.4276 25.7711 0 
36.2467 25.9106 0 
38.4514 25.3568 0 
36.5972 27.3809 0 
37.4709 28.4827 0 
38.5708 28.3603 0 
36.7091 28.6854 0 
36.3497 29.3664 0 
37.5953 30.2399 0 
38.6296 29.8149 0 
38.2776 30.8265 0 
37.3937 30.8034 0 
38.1528 34.0769 0 
37.4349 32.7011 0 
38.6134 32.1022 0 
36.8152 33.5979 0 
37.6543 33.0688 0 
36.6118 35.2701 0 
37.876 37.0078 0 
36.6543 38.219 0 
39.2387 0.79938 0 
38.9193 0.980629 0 
38.973 0.297804 0 
38.8112 0.333646 0 
40.0986 38.0463 0 
38.8259 1.43226 0 
38.8377 0.630316 0 
40.4606 0.163134 0 
39.1167 38.995 0 
39.9218 38.3427 0 
39.2212 2.25463 0 
38.6162 3.42031 0 
40.7764 3.31322 0 
40.9826 2.07939 0 
39.4702 2.11661 0 
39.4761 3.53553 0 
38.9962 4.11682 0 
40.0744 4.07392 0 
39.695 2.8089 0 
40.734 6.65155 0 
40.2003 4.49564 0 
39.3635 5.62177 0 
38.6035 4.65255 0 
40.9846 4.41023 0 
38.8457 5.86496 0 
40.8296 5.16949 0 
40.4534 6.46944 0 
40.2619 6.71608 0 
39.7919 8.58922 0 
40.8976 8.09017 0 
39.9147 6.94083 0 
41.0031 9.08764 0 
40.8798 9.76789 0 
39.2746 11.581 0 
39.0641 12.7106 0 
39.2505 10.1854 0 
39.078 10.9903 0 
39.452 13.369 0 
40.1772 13.1123 0 
40.3814 12.2428 0 
40.6021 13.177 0 
38.6456 14.0289 0 
39.9133 12.1534 0 
40.705 11.9505 0 
40.5695 15.6475 0 
38.842 15.4956 0 
39.813 14.0795 0 
40.2647 15.7484 0 
40.0979 16.538 0 
39.3954 14.8518 0 
40.6525 16.8766 0 
40.2629 17.7023 0 
39.203 17.3826 0 
39.1399 21.707 0 
40.2598 20.1693 0 
40.2001 19.7317 0 
41.3088 21.6843 0 
39.9094 21.1021 0 
39.9646 21.1422 0 
39.2201 20.1726 0 
41.4254 21.1997 0 
39.8254 21.4668 0 
40.4067 22.6415 0 
39.6391 22.2091 0 
39.7455 22.9626 0 
39.2109 23.4704 0 
39.8144 24.2219 0 
40.873 23.5157 0 
39.7425 26.0231 0 
40.6491 26.3106 0 
40.0401 26.5658 0 
41.0637 25.5516 0 
40.174 26.9778 0 
38.6996 25.3259 0 
40.614 24.3561 0 
38.7067 27.4493 0 
39.1531 28.8324 0 
38.9797 28.4397 0 
39.5873 29.7361 0 
40.2566 30.4237 0 
40.1161 29.5015 0 
40.195 30.9137 0 
40.2128 29.6959 0 
39.8453 30.5933 0 
38.9049 29.6889 0 
39.7061 30.1709 0 
40.4381 32.3845 0 
39.3478 31.7825 0 
40.8147 34.3348 0 
41.1484 34.0832 0 
40.3466 33.5171 0 
39.9307 32.4521 0 
40.4201 34.4003 0 
39.2732 34.921 0 
40.9002 36.039 0 
41.1154 35.6226 0 
40.7506 35.3764 0 
40.4799 35.6248 0 
40.895 36.502 0 
38.9839 37.1058 0 
39.9307 36.8511 0 
40.1087 35.7109 0 
38.7006 37.0821 0 
41.0123 37.3495 0 
39.3099 37.4694 0 
43.1427 38.6185 0 
42.3513 0.86298 0 
41.4676 38.452 0 
42.6039 1.24946 0 
42.8522 39.8635 0 
41.6076 1.4283 0 
43.4242 0.847166 0 
43.4936 2.7954 0 
41.5205 3.88403 0 
42.7079 2.81204 0 
43.6363 3.98512 0 
42.048 1.73154 0 
43.058 2.42767 0 
42.1419 2.3562 0 
41.7532 2.78326 0 
42.6277 2.59354 0 
41.6245 2.84746 0 
43.2501 2.08381 0 
41.3213 2.81312 0 
41.8229 3.85892 0 
41.5831 3.77084 0 
41.4174 5.57497 0 
41.4254 4.85856 0 
43.4613 6.46149 0 
42.2176 6.90597 0 
42.9461 8.88163 0 
42.8291 6.95112 0 
42.7198 8.84625 0 
41.677 8.70386 0 
42.4199 9.36706 0 
43.5048 8.88692 0 
41.6733 8.68104 0 
42.2028 9.66048 0 
43.2217 9.26177 0 
42.7799 10.1991 0 
42.2534 11.4596 0 
42.4147 10.5653 0 
41.9555 9.99209 0 
42.3248 11.2029 0 
42.3351 10.4261 0 
41.7145 11.9016 0 
42.9284 9.81063 0 
41.8847 11.5389 0 
43.4871 11.1341 0 
43.6099 11.7374 0 
42.564 13.4166 0 
42.7512 14.9148 0 
41.7924 13.7609 0 
42.0616 14.0968 0 
41.923 14.286 0 
41.1809 14.9825 0 
41.5842 15.6535 0 
41.5829 15.9393 0 
43.2014 14.8325 0 
42.6655 15.3282 0 
42.6922 15.3172 0 
43.3978 15.1595 0 
42.3713 17.0239 0 
43.4251 15.9821 0 
42.652 16.1555 0 
43.3852 16.7364 0 
41.8454 15.6746 0 
41.2904 14.875 0 
42.3644 18.1331 0 
41.4949 17.5008 0 
42.3532 17.9083 0 
43.818 19.3926 0 
41.8322 19.4122 0 
43.0419 19.5397 0 
42.8635 16.9112 0 
42.0375 17.5212 0 
41.0177 16.3752 0 
41.8148 20.2316 0 
41.8027 19.7602 0 
43.374 20.931 0 
42.3305 21.3005 0 
41.3467 21.2491 0 
43.402 20.3985 0 
43.6126 21.1794 0 
43.213 22.1348 0 
41.6745 23.1374 0 
42.9833 23.8385 0 
43.6374 24.4431 0 
42.7661 22.2404 0 
43.1888 25.2377 0 
42.2857 25.7139 0 
41.9107 25.7295 0 
41.6631 26.7515 0 
41.1533 24.873 0 
42.4616 24.3041 0 
43.34 24.967 0 
43.3715 25.4132 0 
42.8813 26.1629 0 
42.8618 28.0039 0 
43.8411 27.9674 0 
41.4118 28.0998 0 
43.3478 27.5609 0 
42.5377 27.5595 0 
41.3967 27.8803 0 
41.9238 28.7811 0 
41.945 28.4834 0 
43.4051 27.1354 0 
42.9934 28.7051 0 
42.1157 28.5078 0 
41.9182 28.6787 0 
43.2001 28.7647 0 
43.437 28.094 0 
43.0522 28.5614 0 
41.854 27.4877 0 
42.7182 29.2331 0 
42.9311 29.4903 0 
42.431 30.0729 0 
42.0031 29.4829 0 
41.7788 29.7604 0 
41.3015 28.9916 0 
42.0269 31.6457 0 
41.9846 30.1277 0 
43.3454 30.7612 0 
42.0595 29.8412 0 
41.2908 30.021 0 
43.2259 29.5108 0 
41.4907 31.4987 0 
41.4443 31.1984 0 
41.6948 32.9932 0 
43.522 32.982 0 
43.0778 32.8178 0 
42.0239 32.9103 0 
43.0737 32.7113 0 
43.2485 32.7969 0 
42.9507 33.6167 0 
43.5337 33.7517 0 
43.3304 33.8455 0 
42.26 32.583 0 
41.6033 36.0149 0 
41.0808 35.2782 0 
43.6338 35.8109 0 
41.2485 33.995 0 
41.613 34.3496 0 
42.8723 36.4349 0 
43.4397 36.5353 0 
43.8035 35.7426 0 
41.8667 36.2444 0 
43.4605 36.7718 0 
42.0836 36.8941 0 
42.7675 35.4341 0 
41.4518 34.716 0 
42.6385 34.342 0 
41.8419 37.7466 0 
42.925 37.0656 0 
41.4618 38.1818 0 
43.5872 37.3589 0 
42.4732 36.6218 0 
41.6483 37.7136 0 
41.5422 36.6708 0 
42.6183 37.4112 0 
41.4059 38.6788 0 
45.0478 37.7659 0 
45.9361 0.858297 0 
45.7816 0.340629 0 
45.2936 0.464769 0 
44.2746 39.5108 0 
45.4036 39.1245 0 
45.8016 1.45239 0 
45.9722 1.52897 0 
45.3341 3.72611 0 
43.8277 4.06089 0 
44.0972 2.48652 0 
46.046 2.85562 0 
44.9096 3.21598 0 
45.6592 4.51507 0 
45.875 3.96467 0 
45.6124 4.25482 0 
45.1876 1.71448 0 
45.6193 2.77673 0 
43.9789 4.19354 0 
44.4086 5.53281 0 
46.1001 4.84789 0 
43.6014 6.56689 0 
44.3242 4.66352 0 
44.5312 3.81992 0 
45.3946 5.58722 0 
43.8044 5.63942 0 
43.7188 4.47255 0 
44.7368 6.51085 0 
44.5961 4.78679 0 
44.8131 7.22558 0 
44.6366 6.25002 0 
43.8024 7.68313 0 
44.701 7.26098 0 
45.0252 7.7975 0 
45.1096 10.4006 0 
43.7163 11.3705 0 
43.5639 10.5583 0 
44.5478 9.15536 0 
43.805 11.1516 0 
46.0984 9.73177 0 
45.0949 10.1818 0 
44.4591 11.2 0 
43.8787 10.7018 0 
45.623 10.589 0 
44.1663 9.38568 0 
45.4329 11.6768 0 
44.4103 10.109 0 
45.0293 9.25399 0 
45.7898 9.88266 0 
45.624 12.0801 0 
44.6773 13.8859 0 
45.1278 13.7105 0 
45.9623 13.8906 0 
45.5105 12.3308 0 
44.6223 13.4303 0 
45.1914 12.2903 0 
44.8173 12.5799 0 
45.0293 11.9554 0 
45.9542 11.7957 0 
44.4293 13.8671 0 
45.3116 13.9892 0 
45.443 13.6085 0 
45.8643 11.662 0 
44.9293 13.2419 0 
43.9468 13.0686 0 
46.0316 15.0939 0 
44.9176 16.1532 0 
45.6987 15.9985 0 
45.8844 16.9474 0 
44.166 16.2581 0 
44.7852 15.484 0 
44.6853 14.8724 0 
43.9001 15.9299 0 
43.7016 15.8172 0 
44.5817 16.8932 0 
44.9572 14.5974 0 
44.4579 15.0445 0 
43.9871 14.3643 0 
45.8603 14.9446 0 
44.9717 16.6483 0 
44.9149 14.893 0 
45.4523 16.3848 0 
45.5646 16.1706 0 
44.7401 16.3996 0 
45.7176 16.4976 0 
44.0874 19.1485 0 
45.619 17.8481 0 
46.0325 18.1327 0 
44.2627 16.8463 0 
46.1185 18.8756 0 
45.4258 17.8176 0 
43.5591 17.1252 0 
44.9658 18.6295 0 
45.4332 18.1192 0 
44.8005 17.5295 0 
45.754 18.4184 0 
45.1405 19.4062 0 
44.2043 17.8789 0 
43.9238 18.9067 0 
44.5345 18.9591 0 
43.9243 21.1213 0 
44.8495 20.1829 0 
46.2809 21.8932 0 
46.1767 20.6839 0 
44.5282 20.9715 0 
45.181 21.5035 0 
44.0804 21.3177 0 
44.2962 22.4289 0 
45.3004 19.3805 0 
45.2512 20.7847 0 
44.745 20.3464 0 
44.9457 23.7848 0 
44.8142 23.3894 0 
45.8946 22.5766 0 
44.9006 23.4807 0 
45.325 23.6345 0 
45.4961 23.5533 0 
44.8992 23.7884 0 
45.028 22.8003 0 
45.4004 24.6627 0 
44.9231 23.7463 0 
44.9334 26.2675 0 
45.8532 25.9782 0 
44.7893 26.3881 0 
44.3274 24.756 0 
45.8756 25.0165 0 
45.6805 24.4614 0 
45.8269 25.6899 0 
46.0248 25.7073 0 
44.1222 25.5307 0 
44.0926 29.0192 0 
45.4967 28.2122 0 
45.1861 29.3075 0 
45.3462 27.0697 0 
45.7767 26.31 0 
44.676 27.3058 0 
44.7286 27.2161 0 
44.3475 29.3346 0 
44.9899 28.5552 0 
44.1895 28.1482 0 
44.8198 29.375 0 
45.2045 29.3721 0 
45.6756 28.1215 0 
46.0751 29.3627 0 
44.9603 28.6063 0 
45.453 28.1223 0 
45.2158 30.2663 0 
44.6976 29.8214 0 
45.0096 30.2601 0 
45.0534 31.1888 0 
45.3032 31.2601 0 
44.984 29.5266 0 
44.5143 31.1689 0 
46.0499 31.234 0 
45.9113 29.8382 0 
[...]
      <PointData Vectors="vector">
        <DataArray type="Float32" Name="Velocity" NumberOfComponents="3" format="ascii">

-247.14 -185.82 0 
-289.161 -95.444 0 
-231.477 -103.832 0 
-282.838 -115.77 0 
-307.199 -136.999 0 
-235.655 -128.302 0 
-217.513 -134.61 0 
-274.553 -143.539 0 
-305.381 -150.217 0 
-277.112 -163.984 0 
-255.711 -188.778 0 
-279.07 -117.231 0 
-277.2 -155.6 0 
-271.166 -107.908 0 
-219.057 -120.181 0 
-232.474 162.581 0 
-308.309 -106.805 0 
-234.292 -105.963 0 
-222.548 -80.1046 0 
-264.395 -16.5402 0 
-241.876 -196.212 0 
-294.753 -111.424 0 
-206.117 -66.6296 0 
-283.875 -63.6254 0 
-266.667 -60.5819 0 
-289.566 -63.8288 0 
-260.134 -149.375 0 
-278.137 -181.025 0 
-282.156 -145.089 0 
-351.336 -192.224 0 
-261.803 -177.843 0 
-290.323 -52.2182 0 
-330.696 -93.7807 0 
-312.337 -140.788 0 
-245.958 -108.329 0 
-237.559 -137.289 0 
-292.971 -52.5019 0 
-245.717 -116.353 0 
-279.857 -73.5089 0 
-251.608 -250.673 0 
-289.111 -130.882 0 
-238.315 -12.4236 0 
-275.921 -122.652 0 
-235.297 -90.1619 0 
-276.061 -122.347 0 
-252.691 -92.4466 0 
-251.474 -112.492 0 
-243.856 -98.9235 0 
-275.556 -91.1437 0 
-264.489 -134.692 0 
-268.062 -82.9532 0 
-243.711 -52.2694 0 
-217.646 2.13703 0 
-241.686 -197.646 0 
-239.28 -52.1357 0 
-271.48 -67.5034 0 
-272.671 -184.881 0 
-271.83 -203.104 0 
-229.838 -61.8575 0 
-295.207 -99.6105 0 
-245.764 -199.024 0 
-257.445 -200.737 0 
-225.711 30.1081 0 
-279.507 -82.8819 0 
-244.188 -72.2622 0 
-254.659 -156.107 0 
-310.859 -111.848 0 
-279.05 -68.5044 0 
-312.852 -80.5379 0 
-327.864 -210.969 0 
-301.761 -135.485 0 
-289.962 -174.25 0 
-308.841 -172.524 0 
-263.433 -188.663 0 
-261.717 -66.9158 0 
-254.171 -174.148 0 
-320.732 -61.9386 0 
-221.142 36.4041 0 
-293.685 -194.041 0 
-291.093 -56.2414 0 
-256.815 -215.336 0 
-289.236 -201.932 0 
-280.851 -162.95 0 
-315.714 -186.444 0 
-275.571 -32.772 0 
-305.053 -40.7551 0 
-224.341 57.659 0 
-262.524 -188.604 0 
-279.905 -168.666 0 
-286.559 -93.7746 0 
-230.403 -132.132 0 
-293.556 -123.376 0 
-220.095 -107.168 0 
-296.934 -50.2707 0 
-284.047 -26.9683 0 
-208.259 -114.349 0 
-267.848 -68.7981 0 
-262.543 -22.0201 0 
-216.636 -109.999 0 
-219.497 -118.438 0 
-277.927 -141.315 0 
-297.997 -187.765 0 
-273.676 -162.777 0 
-266.826 -241.967 0 
-281.507 -36.4124 0 
-208.462 72.1529 0 
-303.476 -186.835 0 
-245.65 -103.134 0 
-274.667 -135.475 0 
-244.565 -112.537 0 
-329.13 -102.378 0 
-260.085 -47.8868 0 
-285.498 -215.044 0 
-281.245 -215.313 0 
-185.245 66.6902 0 
-208.2 -97.5083 0 
-261.758 -72.4901 0 
-319.84 -122.506 0 
-228.705 -71.2452 0 
-240.364 -109.708 0 
-286.265 -212.319 0 
-315.171 -162.425 0 
-199.545 -102.238 0 
-248.954 -77.5772 0 
-264.942 -101.992 0 
-273.879 -128.175 0 
-292.575 -112.408 0 
-295.585 -231.135 0 
-265.773 -121.73 0 
-252.885 -99.5468 0 
-260.425 34.8557 0 
-293.021 -69.4195 0 
-260.36 -121.208 0 
-263.598 -70.662 0 
-196.213 117.27 0 
-272.416 -221.065 0 
-303.389 -210.081 0 
-251.34 -118.488 0 
-252.024 -168.983 0 
-253.905 -219.758 0 
-262.4 -226.284 0 
-258.849 -193.453 0 
-230.224 -59.5198 0 
-236.796 -181.871 0 
-275.88 -207.925 0 
-274.67 -52.6928 0 
-293.144 -159.495 0 
-282.101 -195.329 0 
-217.117 -56.7824 0 
-264.264 -55.4907 0 
-242.168 -127.612 0 
-251.63 -199.209 0 
-240.15 -174.74 0 
-202.512 -212.511 0 
-295.442 -161.981 0 
-289.891 -93.7036 0 
-253.661 -165.78 0 
-281.701 -175.056 0 
-287.006 -108.946 0 
-233.082 -159.505 0 
-270.199 -120.303 0 
-270.373 -64.5959 0 
-312.29 -75.8744 0 
-253.237 -164.632 0 
-261.005 -172.701 0 
-240.275 -81.1141 0 
-310.602 -197.104 0 
-254.503 -184.98 0 
-276.081 -163.633 0 
-288.839 -97.0436 0 
-250.824 -142.554 0 
-261.222 -166.611 0 
-295.542 -83.729 0 
-242.812 -157.132 0 
-286.872 -88.399 0 
-253.255 9.98287 0 
-261.198 -141.004 0 
-270.169 -117.12 0 
-290.207 -149.891 0 
-243.71 -135.779 0 
-181.043 -49.0988 0 
-217.894 -52.1363 0 
-322.792 -210.152 0 
-290.509 -52.2147 0 
-294.712 -154.492 0 
-307.904 -185.955 0 
-309.803 -273.134 0 
-265.422 -172.729 0 
-298.932 -41.3188 0 
-230.623 -100.742 0 
-253.36 -154.014 0 
-261.564 -155.307 0 
-282.796 -244.802 0 
-279.716 -32.2079 0 
-226.343 -99.1372 0 
-258.337 -139.244 0 
-288.16 -134.03 0 
-257.406 -141.044 0 
-263.515 -122.524 0 
-287.863 -150.547 0 
-230.962 -116.926 0 
-317.165 -239.978 0 
-240.949 25.4466 0 
-274.586 13.0837 0 
-267.794 -14.8994 0 
-260.92 -141.178 0 
-316.654 -250.255 0 
-273.263 -0.635825 0 
-310.201 -185.879 0 
-283.395 -128.409 0 
-341.782 -166.914 0 
-248.668 -12.9712 0 
-264.418 -92.1456 0 
-245.164 -116.356 0 
-247.703 -136.214 0 
-258.14 -139.291 0 
-250.361 -97.6034 0 
-221.738 -77.7779 0 
-273.64 -236.323 0 
-233.464 -5.20806 0 
-236.396 -71.9445 0 
-211.902 -77.3717 0 
-247.815 -95.2178 0 
-275.749 -215.267 0 
-299.427 -238.499 0 
-279.554 -150.652 0 
-279.979 -137.854 0 
-199.765 -65.0584 0 
-275.143 -165.309 0 
-318.795 -114.584 0 
-247.752 -123.609 0 
-265.292 -175.995 0 
-222.005 -212.947 0 
-254.953 -77.873 0 
-284.206 -73.9149 0 
-281.793 -194.628 0 
-222.982 -193.532 0 
-256.565 -121.644 0 
-320.24 -198.958 0 
-264.777 -84.229 0 
-256.325 -55.1557 0 
-288.114 -102.465 0 
-262.094 -203.495 0 
-225.643 -136.712 0 
-261.994 -97.8915 0 
-217.711 -184.826 0 
-288.825 -221.576 0 
-288.141 -172.462 0 
-232.811 -177.205 0 
-328.97 -213.466 0 
-286.97 -165.615 0 
-239.038 -227.398 0 
-242.418 2.03775 0 
-275.506 -230.27 0 
-260.788 -64.3685 0 
-234.317 -93.4698 0 
-273.418 -205.846 0 
-303.947 -150.522 0 
-265.268 -229.358 0 
-228.847 -144.563 0 
-277.055 -234.236 0 
-255.386 -192.472 0 
-274.205 -84.9396 0 
-243.773 -87.2835 0 
-261.265 -211.125 0 
-251.575 -203.177 0 
-194.33 -75.1884 0 
-250.578 -205.952 0 
-288.062 -226.453 0 
-232.807 -187.637 0 
-289.182 -184.057 0 
-288.522 -244.31 0 
-289.274 -242.585 0 
-248.649 -145.356 0 
-222.963 -225.087 0 
-249.048 -46.0762 0 
-251.427 -91.4541 0 
-222.435 -136.858 0 
-269.893 -90.2769 0 
-236.595 -59.0851 0 
-262.646 -173.538 0 
-233.582 -179.686 0 
-321.028 -131.585 0 
-301.035 -75.9647 0 
-291.76 -234.438 0 
-226.029 -57.9886 0 
-285.53 -35.6247 0 
-278.429 -184.236 0 
-227.163 -197.175 0 
-240.013 -87.4177 0 
-279.892 -187.466 0 
-243.527 -154.085 0 
-289.962 -175.105 0 
-244.714 -56.8196 0 
-266.415 -199.029 0 
-273.938 -313.829 0 
-280.728 -167.637 0 
-255.801 22.2941 0 
-280.569 -195.465 0 
-278.366 -183.895 0 
-264.488 -41.874 0 
-277.435 -212.184 0 
-231.73 -128.13 0 
-285.353 -140.245 0 
-205.949 -67.8513 0 
-296.64 -263.067 0 
-294.863 -153.922 0 
-268.727 -196.978 0 
-252.777 -97.8733 0 
-262.255 -169.867 0 
-288.414 -39.5983 0 
-283.699 -191.325 0 
-300.604 -291.906 0 
-296.146 -148.74 0 
-272.752 -37.9157 0 
-248.407 -188.803 0 
-250.035 -196.118 0 
-284.035 -132.086 0 
-293.776 -245.442 0 
-243.894 -161.856 0 
-263.425 -142.442 0 
-305.1 -159.735 0 
-295.159 -160.764 0 
-230.063 -132.848 0 
-239.578 -17.1059 0 
-293.091 -185.336 0 
-236.496 -73.3875 0 
-278.576 -59.7944 0 
-312.391 -141.291 0 
-220.803 -143.209 0 
-311.567 -39.0994 0 
-295.805 -44.9414 0 
-279.357 -107.327 0 
-245.37 -37.0207 0 
-293.385 -168.395 0 
-275.82 78.6642 0 
-232.515 -96.4372 0 
-291.767 -161.624 0 
-260.172 -129.22 0 
-258.93 -154.618 0 
-248.907 -242.44 0 
-272.011 -81.9366 0 
-315.87 -139.159 0 
-266.247 -60.7653 0 
-269.182 -83.8903 0 
-229.523 -152.509 0 
-310.353 -145.591 0 
-318.017 -173.061 0 
-281.476 -124.268 0 
-286.909 11.84 0 
-292.279 -123.98 0 
-280.83 -241.676 0 
-267.751 -143.362 0 
-261.583 -1.56356 0 
-248.036 -118.576 0 
-253.799 -150.022 0 
-227.99 -133.317 0 
-253.84 -148.646 0 
-291.022 -130.207 0 
-210.042 22.9959 0 
-208.919 65.8055 0 
-227.929 -1.92649 0 
-275.615 -32.5007 0 
-234.995 -128.846 0 
-282.441 -140.013 0 
-287.605 -160.057 0 
-286.839 -145.712 0 
-259.853 -111.521 0 
-251.465 -225.196 0 
-240.023 -222.103 0 
-264.115 -24.5271 0 
-265.314 -22.0028 0 
-241.202 -156.978 0 
-242.286 47.3921 0 
-247.506 -122.909 0 
-270.816 -118.232 0 
-294.717 -148.908 0 
-284.036 -290.127 0 
-304.706 -170.666 0 
-233.745 -57.4224 0 
-273.622 -131.473 0 
-236.186 -89.1731 0 
-244.599 -135.219 0 
-217.458 82.8209 0 
-230.561 17.4024 0 
-245.264 -94.3411 0 
-249.633 -216.136 0 
-236.581 -180.504 0 
-319.563 -156.32 0 
-217.261 -96.5104 0 
-220.323 -93.8725 0 
-239.865 -109.736 0 
-289.811 -140.443 0 
-250.836 79.7771 0 
-236.152 -220.667 0 
-293.795 -243.134 0 
-265.795 -217.592 0 
-260.157 -207.883 0 
-245.355 -149.499 0 
-314.582 -78.7646 0 
-231.759 -199.365 0 
-210.767 -63.0375 0 
-276.157 -109.907 0 
-244.898 -212.453 0 
-256.344 -130.481 0 
-265.826 -28.7317 0 
-218.837 -223.484 0 
-248.07 14.8715 0 
-200.233 -187.465 0 
-257.724 -227.505 0 
-267.584 -223.934 0 
-256.507 -128.584 0 
-290.418 -238.389 0 
-273.673 -156.951 0 
-279.688 -85.8351 0 
-310.24 -217.398 0 
-272.939 -72.5071 0 
-278.788 -186.188 0 
-270.129 -126.145 0 
-275.688 -196.821 0 
-284.082 -60.6433 0 
-278.645 -164.532 0 
-295.65 -203.881 0 
-253.546 -243.363 0 
-285.447 -156.014 0 
-252.485 -14.7635 0 
-256.787 -66.6127 0 
-277.255 -224.494 0 
-258.173 -191.96 0 
-297.043 -152.718 0 
-232.416 -225.205 0 
-284.864 -219.65 0 
-274.933 -192.252 0 
-316.458 -135.827 0 
-249.101 -214.642 0 
-272.304 -196.237 0 
-262.239 -166.418 0 
-224.603 -186.855 0 
-236.977 -40.3558 0 
-273.71 -194.321 0 
-214.462 -73.2818 0 
-296.74 -211.85 0 
-222.428 -53.9487 0 
-291.599 -201.341 0 
-248.55 2.09853 0 
-255.465 -195.062 0 
-268.364 -195.739 0 
-255.809 -232.332 0 
-258.025 -102.294 0 
-255.422 53.6075 0 
-314.782 -84.4636 0 
-259.839 -165.978 0 
-268.371 -63.1268 0 
-291.763 -219.678 0 
-291.247 -170.7 0 
-251.422 -220.472 0 
-272.289 -83.5022 0 
-266.994 -198.203 0 
-267.548 -73.1567 0 
-254.924 -120.284 0 
-282.024 -226.338 0 
-277.683 -210.422 0 
-266.396 -83.7176 0 
-285.776 -180.24 0 
-299.89 -162.213 0 
-236.101 -161.362 0 
-322.077 -194.973 0 
-288.009 -176.982 0 
-266.55 -105.51 0 
-258.94 -153.543 0 
-222.199 -146.796 0 
-277.121 -70.6644 0 
-268.749 -180.401 0 
-202.95 22.8433 0 
-242.713 -201.14 0 
-261.562 -142.613 0 
-275.171 -156.091 0 
-309.877 -218.565 0 
-204.227 -58.8024 0 
-295.893 -148.005 0 
-312.735 -208.577 0 
-306.634 -152.836 0 
-285.757 -141.901 0 
-292.722 -150.362 0 
-256.039 -148.674 0 
-220.414 -71.6528 0 
-238.505 -152.596 0 
-225.616 -156.059 0 
-243.078 -63.0333 0 
-265.07 -183.108 0 
-202.672 -134.626 0 
-286.435 -141.628 0 
-275.56 -264.392 0 
-296.755 -192.768 0 
-313.596 -145.179 0 
-320.631 -184.804 0 
-271.658 -198.981 0 
-260.663 -175.302 0 
-282.295 -146.226 0 
-256.612 -170.804 0 
-224.813 -150.357 0 
-261.047 -280.936 0 
-230.865 -186.498 0 
-296.169 -173.534 0 
-196.812 -115.261 0 
-314.937 -191.123 0 
-230.198 -156.383 0 
-247.551 -178.152 0 
-293.784 -171.381 0 
-287.919 -166.813 0 
-242.866 -46.024 0 
-264.41 -178.449 0 
-216.279 56.2586 0 
-247.167 -37.3414 0 
-268.188 -19.8743 0 
-244.741 -144.545 0 
-286.177 -160.429 0 
-266.702 -95.9942 0 
-268.936 -156.804 0 
-197.714 2.48675 0 
-265.929 -131.194 0 
-283.045 -60.9055 0 
-295.681 -178.768 0 
-249.283 -190.086 0 
-253.348 -153.828 0 
-258.611 -149.697 0 
-278.096 -183.693 0 
-287.864 -221.213 0 
-250.595 -247.228 0 
-256.309 -188.991 0 
-302.039 -69.4184 0 
-252.951 -35.4107 0 
-211.883 35.0957 0 
-222.187 4.98427 0 
-266.831 -131.834 0 
-244.344 -127.226 0 
-208.311 9.90751 0 
-252.144 -157.42 0 
-253.155 -147.094 0 
-239.612 -132.316 0 
-293.57 -266.397 0 
-236.033 -219.255 0 
-285.152 -233.043 0 
-251.43 -103.046 0 
-281.981 -162.28 0 
-227.716 -12.7981 0 
-210.293 -146.954 0 
-247.131 -215.454 0 
-283.464 -248.925 0 
-256.207 -148.293 0 
-249.14 -15.9481 0 
-247.22 -152.396 0 
-281.25 -162.471 0 
-251.978 -168.47 0 
-214.406 -63.7491 0 
-228.716 -126.948 0 
-278.114 -164.797 0 
-195.547 -106.133 0 
-260.499 -115.976 0 
-223.905 -22.1404 0 
-245.019 -38.2325 0 
-215.162 -7.84922 0 
-287.159 -237.427 0 
-245.187 -228.332 0 
-247.505 -18.3905 0 
-264.367 -167.284 0 
-295.013 12.5571 0 
-269.712 -228.767 0 
-289.966 -199.062 0 
-271.405 -143.415 0 
-201.559 -248.453 0 
-300.084 -140.975 0 
-266.371 -184.839 0 
-254.364 -109.562 0 
-238.197 -115.671 0 
-260.529 -154.826 0 
-258.562 -133.514 0 
-282.364 -244.44 0 
-241.878 -214.071 0 
-212.603 -231.257 0 
-255.358 -118.785 0 
-257.413 -215.327 0 
-283.579 -208.518 0 
-209.536 -196.52 0 
-237.344 -105.982 0 
-283.094 -258.719 0 
-302.359 -226.529 0 
-265.709 -210.598 0 
-268.581 -143.526 0 
-247.667 -212.021 0 
-217.499 -250.047 0 
-216.382 -92.2564 0 
-238.543 -105.016 0 
-267.812 -115.512 0 
-287.794 -107.037 0 
-286.115 -99.4586 0 
-275.519 -240.492 0 
-288.201 -113.897 0 
-287.284 -216.539 0 
-273.575 -246.625 0 
-239.444 -101.376 0 
-305.557 -194.767 0 
-306.819 -215.145 0 
-200.744 -77.7358 0 
-274.168 -111.904 0 
-260.56 -67.6712 0 
-248.776 -120.555 0 
-254.083 -66.781 0 
-258.87 -207.793 0 
-227.24 -121.821 0 
-275.135 -200.991 0 
-246.422 -94.9896 0 
-279.672 -219.512 0 
-275.214 -223.554 0 
-300.263 -168.803 0 
-320.173 -92.9124 0 
-280.639 -189.714 0 
-234.857 -237.151 0 
-238.559 -234.378 0 
-246.861 -39.8528 0 
-289.498 -99.5723 0 
-281.565 -254.871 0 
-238.986 -142.98 0 
-279.618 -104.362 0 
-282.561 -168.809 0 
-233.081 -112.117 0 
-285.548 -98.9514 0 
-284.079 -183.598 0 
-265.965 -239.918 0 
-281.957 -193.149 0 
-273.54 -52.055 0 
-297.01 -211.663 0 
-244.155 -182.493 0 
-303.061 -111.292 0 
-296.573 -118.31 0 
-201.441 -57.3964 0 
-237.771 -103.352 0 
-317.952 -187.329 0 
-198.289 -73.4459 0 
-146.354 96.9943 0 
-237.739 -79.2159 0 
-218.648 -207.877 0 
-277.185 -208.519 0 
-268.575 -172.391 0 
-242.097 -238.032 0 
-288.979 -191.823 0 
-252.002 -96.3082 0 
-242.489 -205.946 0 
-249.095 -224.39 0 
-242.968 96.7419 0 
-247.051 -180.212 0 
-291.579 -56.373 0 
-221.691 -96.9799 0 
-259.622 -186.524 0 
-305.011 -216.409 0 
-219.786 -162.441 0 
-214.958 -90.4762 0 
-279.714 -177.248 0 
-287.452 -125.605 0 
-273.943 -221.406 0 
-296.74 -182.961 0 
-291.03 -171.954 0 
-228.327 -195.665 0 
-265.291 -235.49 0 
-245.161 -211.477 0 
-250.11 -229.271 0 
-238.499 -146.65 0 
-202.182 -184.871 0 
-231.557 -11.8315 0 
-214.685 -193.846 0 
-305.015 -225.89 0 
-263.814 -153.745 0 
-292.928 -206.347 0 
-294.995 -75.4 0 
-258.104 -173.303 0 
-233.743 -184.704 0 
-298.205 -120.574 0 
-251.108 52.7285 0 
-265.645 -83.9145 0 
-273.134 -214.536 0 
-278.791 -103.405 0 
-270.038 -192.562 0 
-223.71 -69.4776 0 
-274.131 -111.74 0 
-214.943 -185.266 0 
-232.712 -226.47 0 
-268.425 -220.296 0 
-289.328 -78.5016 0 
-253.78 -188.896 0 
-242.079 -188.856 0 
-282.171 -109.19 0 
-236.049 -201.576 0 
-252.582 -72.3469 0 
-216.027 -173.392 0 
-257.617 -183.133 0 
-247.701 -264.15 0 
-300.593 -158.851 0 
-280.431 -175.785 0 
-229.509 -187.113 0 
-284.275 -106.319 0 
-276.886 -87.2761 0 
-258.958 -78.9756 0 
-269.862 -68.9208 0 
-207.556 -105.288 0 
-279.927 -120.676 0 
-237.434 -160.127 0 
-244.506 -132.383 0 
-267.325 -214.387 0 
-261.143 -108.624 0 
-282.45 -139.7 0 
-294.707 -147.89 0 
-271.274 -192.936 0 
-273.422 -164.57 0 
-220.25 -221.243 0 
-226.146 -165.464 0 
-268.269 -188.573 0 
-218.458 -153.142 0 
-205.917 -198.972 0 
-271.272 -184.994 0 
-233.848 -140.947 0 
-232.045 -125.289 0 
-286.026 -180.481 0 
-265.857 -224.639 0 
-280.953 -193.243 0 
-284.586 -203.032 0 
-232.173 -72.412 0 
-274.628 -165.292 0 
-228.313 -241.947 0 
-248.486 -181.494 0 
-311.891 -198.336 0 
-287.13 -158.598 0 
-275.108 -51.7004 0 
-260.111 -193.271 0 
-288.904 -164.99 0 
-283.067 -48.9494 0 
-231.774 -249.251 0 
-262.221 -174.51 0 
-227.713 -277.303 0 
-242.918 -167.154 0 
-250.328 -160.18 0 
-259.442 -148.309 0 
-303.821 -211.483 0 
-297.102 -148.565 0 
-287.432 -154.189 0 
-225.312 -170.272 0 
-241.504 -270.775 0 
-277.22 -183.331 0 
-282.933 -158.217 0 
-264.047 -150.343 0 
-242.803 -258.276 0 
-294.984 -135.99 0 
-225.37 -190.773 0 
-247.368 -45.4078 0 
-228.093 -174.138 0 
-247.053 -163.091 0 
-267.873 -186.364 0 
-232.221 -155.357 0 
-197.14 -149.99 0 
-226.122 41.7187 0 
-216.527 -149.493 0 
-244.507 -145.609 0 
-265.007 -193.403 0 
-266.138 -157.79 0 
-245.611 -80.9434 0 
-193.911 -151.865 0 
-227.091 -165.507 0 
-262.382 -214.603 0 
-242.551 -159.208 0 
-247.245 -173.399 0 
-207.754 -133.666 0 
-276.392 -143.139 0 
-281.944 -42.8479 0 
-272.416 -128.872 0 
-232.925 -180.473 0 
-277.492 -178.143 0 
-262.78 -124.27 0 
-190.505 59.389 0 
-300.48 -194.627 0 
-255.832 -130.57 0 
-270.138 -278.886 0 
-274.518 -266.519 0 
-268.201 -170.262 0 
-261.53 -177.827 0 
-253.821 -179.242 0 
-271.764 -225.454 0 
-270.498 -214.312 0 
-288.826 -207.336 0 
-301.419 -246.34 0 
-249.199 -39.8826 0 
-197.531 -189.211 0 
-240.253 -167.785 0 
-236.403 -165.208 0 
-238.422 -244.469 0 
-262.757 -128.084 0 
-292.154 -118.46 0 
-211.921 36.5218 0 
-234.437 -34.2282 0 
-231.089 -156.44 0 
-266.519 -101.773 0 
-250.298 -227.775 0 
-236.826 -156.771 0 
-281.935 -131.857 0 
-243.705 -129.67 0 
-282.897 -252.155 0 
-291.835 -127.057 0 
-221.029 -227.971 0 
-282.599 -237.563 0 
-297.236 -131.037 0 
-282.704 -153.631 0 
-214.303 -113.595 0 
-258.092 -106.034 0 
-294.325 -165.945 0 
-289.024 -243.342 0 
-276.604 -273.709 0 
-204.071 -18.4808 0 
-246.472 -179.95 0 
-254.191 -131.051 0 
-235.82 -210.693 0 
-273.682 -155.082 0 
-217.655 -147.778 0 
-301.232 -237.975 0 
-299.86 -238.838 0 
-272.206 -136.343 0 
-307.621 -132.514 0 
-220.697 -259.611 0 
-298.366 -258.212 0 
-209.887 -75.1562 0 
-225.005 -149.571 0 
-256.301 -241.734 0 
-251.573 -118.509 0 
-262.341 -117.178 0 
-252.583 -140.18 0 
-236.472 -271.311 0 
-222.032 -103.015 0 
-211.687 -128.188 0 
-267.722 -216.374 0 
-270.376 -132.817 0 
-264.035 -242.284 0 
-278.881 -127.455 0 
-253.591 -44.0668 0 
-219.982 -229.861 0 
-240.714 -66.1289 0 
-235.607 -106.321 0 
-257.097 -217.422 0 
-187.63 -159.065 0 
-209.277 -61.1378 0 
-215.819 -4.07323 0 
-216.159 -76.0366 0 
-212.588 -39.6294 0 
-199.566 74.8826 0 
-290.936 -121.361 0 
-279.059 -226.137 0 
-234.078 -137.842 0 
-212.513 -128.933 0 
-311.234 -241.243 0 
-270.558 -92.3617 0 
-281.798 -231.683 0 
-237.713 -243.83 0 
-260.542 -154.813 0 
-224.994 -122.337 0 
-287.207 -208.651 0 
-309.269 -143.559 0 
-243.975 -237.91 0 
-213.319 -4.22726 0 
-277.47 -199.948 0 
-224.349 -110.927 0 
-251.246 -109.696 0 
-216.798 -81.7106 0 
-284.925 -225.497 0 
-272.594 -241.277 0 
-234.263 -105.563 0 
-278.23 -191.439 0 
-253.905 -166.268 0 
-298.191 -205.691 0 
-251.673 -108.236 0 
-258.196 -225.769 0 
-254.266 -79.6786 0 
-281.832 -21.404 0 
-292.421 -136.761 0 
-258.343 -26.9487 0 
-228.567 -140.596 0 
-155.106 95.0984 0 
-275.895 -110.037 0 
-265.929 -186.215 0 
-240.261 -108.48 0 
-234.176 -229.258 0 
-259.788 -239.812 0 
-243.031 -188.107 0 
-239.11 -155.743 0 
-254.916 -113.337 0 
-300.862 -92.8342 0 
-276.179 -191.966 0 
-243.877 -205.138 0 
-234.713 -69.7128 0 
-253.523 -191.766 0 
-249.166 -162.87 0 
-255.572 -210.517 0 
-277.277 -170.505 0 
-254.516 -157.246 0 
-199.497 -110.716 0 
-287.297 -185.788 0 
-223.738 -102.547 0 
-264.641 -179.95 0 
-197.104 -186.982 0 
-245.619 -157.979 0 
-296.333 -187.385 0 
-220.832 -70.7776 0 
-227.529 -219.231 0 
-266.186 -91.2601 0 
-276.825 -115.491 0 
-247.784 -74.3489 0 
-230.655 -88.8035 0 
-296.489 -218.125 0 
-199.715 -62.3959 0 
-283.305 -213.535 0 
-242.307 -130.346 0 
-250.886 -243.289 0 
-261.202 -91.4969 0 
-256.918 -184.511 0 
-266.835 -49.0192 0 
-182.219 85.2597 0 
-264.054 -111.987 0 
-222.793 107.984 0 
-255.553 -184.966 0 
-261.895 -216.445 0 
-225.482 -218.825 0 
-219.773 -108.459 0 
-305.369 -212.606 0 
-255.466 -193.384 0 
-268.212 -236.724 0 
-255.383 -245.574 0 
-314.494 -132.771 0 
-213.023 47.7107 0 
-236.259 -215.322 0 
-265.874 -199.803 0 
-300.235 -209.509 0 
-310.255 -223.395 0 
-216.207 -176.731 0 
-259.203 -178.404 0 
-241.735 -90.9889 0 
-263.877 -159.674 0 
-291.588 -199.782 0 
-235.972 -186.016 0 
-287.957 -192.856 0 
-262.572 -222.452 0 
-299.753 -211.658 0 
-228.094 -77.2007 0 
-275.038 -203.637 0 
-234.097 -175.396 0 
-267.312 -166.166 0 
-268.682 -176.367 0 
-196.4 -92.3792 0 
-222.008 -122.494 0 
-283.455 -163.773 0 
-248.803 -183.719 0 
-200.381 -55.1024 0 