<VTKFile type="UnstructuredGrid" version="0.1" byte_order="BigEndian">
  <UnstructuredGrid>
        <Piece NumberOfPoints="8000" NumberOfCells="0" Time= "0.44">      <Points>
        <DataArray name="Position" type="Float32"  NumberOfComponents= "3"  format="ascii">

38.6193 4.1366 0 
41.8624 20.6802 0 
44.2812 13.8477 0 
46.1842 14.7714 0 
45.794 17.6458 0 
47.6403 2.33179 0 
46.8002 16.2165 0 
48.8214 19.3288 0 
46.8479 23.4965 0 
48.8641 23.7103 0 
48.5832 25.5258 0 
46.7064 31.5354 0 
50.743 0.59177 0 
50.7428 5.80954 0 
49.1235 7.81732 0 
49.4688 7.47888 0 
51.1461 8.09582 0 
50.0028 10.1306 0 
49.327 10.999 0 
49.8125 10.3407 0 
50.6451 12.1778 0 
50.1463 16.0428 0 
50.5783 15.9225 0 
50.1648 18.4801 0 
49.6505 23.5659 0 
50.8635 23.134 0 
51.1317 27.4173 0 
51.3149 29.1667 0 
50.0494 31.8221 0 
49.8154 31.8508 0 
49.342 34.1392 0 
50.8414 34.7291 0 
50.8466 37.047 0 
49.7309 36.1619 0 
51.0829 35.8498 0 
50.8525 38.1909 0 
50.552 38.1644 0 
51.9309 1.21917 0 
52.6013 1.41437 0 
53.1912 0.853734 0 
52.57 3.63343 0 
52.4402 5.47803 0 
51.7923 5.28635 0 
53.3867 6.35934 0 
51.0805 8.9951 0 
52.5466 7.01202 0 
52.4349 8.09314 0 
52.9467 7.51942 0 
52.3381 11.0897 0 
52.0456 11.8247 0 
52.266 12.4279 0 
51.3112 11.9082 0 
52.5505 15.1327 0 
52.2117 12.5519 0 
51.5323 14.3005 0 
53.61 11.5735 0 
53.0425 12.5756 0 
51.7714 14.5879 0 
51.7082 16.8764 0 
51.795 15.7854 0 
51.6049 15.4887 0 
52.2274 18.1795 0 
53.5055 19.8959 0 
53.9383 21.9526 0 
52.1888 19.5734 0 
52.3646 20.4733 0 
53.1074 22.0375 0 
51.3364 24.2369 0 
51.5679 23.0129 0 
51.3863 22.6394 0 
53.0067 26.8948 0 
51.7224 26.3788 0 
53.434 26.0403 0 
52.3179 25.4573 0 
52.4395 28.8592 0 
52.4354 29.2366 0 
52.4 28.5744 0 
53.023 27.7564 0 
52.1631 29.2838 0 
51.2791 29.8208 0 
51.3992 31.7368 0 
51.7628 30.696 0 
52.8573 30.5254 0 
53.1026 32.0877 0 
52.8573 36.0109 0 
53.2052 34.6592 0 
53.5761 36.229 0 
52.6208 38.8871 0 
53.7406 37.2093 0 
55.0127 0.850599 0 
53.6955 0.446791 0 
55.3031 38.5809 0 
56.1048 0.744049 0 
56.0102 1.99069 0 
54.4512 1.36464 0 
55.4829 2.87129 0 
55.4228 3.22588 0 
54.8447 2.38703 0 
54.7672 2.93822 0 
56.444 3.87836 0 
55.843 4.13967 0 
54.1797 4.11161 0 
55.8001 2.4739 0 
55.3506 2.99514 0 
55.2435 5.97721 0 
55.6355 5.86285 0 
55.762 5.06391 0 
54.4016 5.31348 0 
53.903 5.60982 0 
55.9502 6.76646 0 
54.6129 6.69361 0 
54.5529 6.29211 0 
56.1135 8.8256 0 
55.4044 8.09651 0 
55.4306 6.9329 0 
55.8951 9.61675 0 
53.8559 7.42746 0 
55.9804 8.32739 0 
55.9337 10.8729 0 
55.8007 10.9889 0 
56.389 10.0872 0 
54.902 11.4924 0 
54.4765 10.373 0 
54.2582 10.0292 0 
53.903 9.87157 0 
55.0297 12.0327 0 
54.6148 12.0522 0 
54.4717 12.0015 0 
54.8194 12.771 0 
55.9217 14.5991 0 
54.589 14.0379 0 
55.1746 12.8848 0 
54.5725 13.8632 0 
55.8145 12.0845 0 
54.167 12.2102 0 
55.3588 13.4325 0 
54.2531 13.6637 0 
54.2073 12.3729 0 
56.179 16.6207 0 
55.7935 15.6582 0 
55.9531 17.38 0 
54.2387 15.3536 0 
54.8085 16.2456 0 
55.8892 14.4511 0 
55.0229 14.5482 0 
53.7101 15.7774 0 
56.1108 17.7069 0 
55.2128 19.7969 0 
55.4922 18.6053 0 
55.6023 17.8518 0 
53.9858 21.3383 0 
56.073 20.758 0 
56.1751 21.2534 0 
55.2756 22.6422 0 
54.8044 23.3544 0 
53.8181 24.0697 0 
56.1676 22.8542 0 
56.0123 22.1059 0 
54.2842 24.4416 0 
54.2614 25.0117 0 
55.0818 25.9612 0 
54.0544 26.2449 0 
56.2199 26.762 0 
55.6773 25.7269 0 
55.3357 26.3239 0 
56.0078 24.8176 0 
56.049 27.2522 0 
56.661 28.0848 0 
54.4647 28.2198 0 
53.9285 29.4186 0 
55.9453 29.3207 0 
56.0423 30.879 0 
56.0739 31.2083 0 
55.8315 33.203 0 
54.3051 32.5606 0 
55.651 32.3592 0 
55.6491 33.5602 0 
54.76 32.3095 0 
54.6409 33.8257 0 
55.2025 34.0344 0 
54.2638 34.9383 0 
55.0741 36.6041 0 
54.6089 35.221 0 
55.84 36.7958 0 
54.0346 35.9349 0 
54.8124 35.9575 0 
54.1747 37.0149 0 
54.201 37.6286 0 
55.6866 38.278 0 
54.536 38.0259 0 
54.0482 37.5149 0 
56.7841 1.57389 0 
56.9633 38.362 0 
57.3875 0.439293 0 
57.4637 0.297093 0 
57.1665 0.553732 0 
58.0306 39.895 0 
57.8333 2.5253 0 
56.8952 2.58532 0 
57.5718 3.46478 0 
56.0761 4.57874 0 
58.3833 3.69148 0 
58.5042 2.22027 0 
56.128 2.68859 0 
58.0432 3.56719 0 
58.4106 3.07489 0 
57.0828 4.26047 0 
57.4589 3.16286 0 
58.6825 2.62829 0 
57.7311 6.15113 0 
58.6439 5.7239 0 
58.2068 6.55154 0 
57.8193 7.07529 0 
58.3982 5.04098 0 
56.5747 4.90441 0 
58.5867 4.31927 0 
56.5488 6.18635 0 
57.651 6.66153 0 
58.5929 5.44308 0 
58.1284 5.95478 0 
56.263 7.89922 0 
56.5329 9.02368 0 
56.8049 8.68522 0 
58.3785 7.45156 0 
58.3258 6.59226 0 
57.6693 8.44796 0 
58.529 7.45996 0 
58.4191 7.50213 0 
57.543 9.88852 0 
58.5668 7.99869 0 
58.2274 9.30962 0 
57.8931 8.54753 0 
58.1257 6.7663 0 
58.5562 11.2068 0 
56.8966 9.78422 0 
58.3806 9.41767 0 
56.1771 9.78042 0 
56.7438 11.5252 0 
57.0872 10.8885 0 
57.3282 9.76115 0 
56.7725 10.9762 0 
58.8409 12.2573 0 
57.4818 11.4663 0 
56.8173 9.9158 0 
58.6479 11.3913 0 
57.9428 11.8515 0 
57.7584 11.116 0 
58.4713 10.5191 0 
58.0893 11.7306 0 
56.9685 9.96445 0 
58.8815 10.9064 0 
58.1747 9.93711 0 
57.5804 13.4 0 
56.9131 13.2221 0 
57.0593 12.5204 0 
56.4987 13.4231 0 
56.911 15.4404 0 
56.4977 15.5333 0 
57.7909 15.2517 0 
57.0183 16.303 0 
56.5286 15.7731 0 
56.2765 15.6149 0 
57.7158 16.9679 0 
58.3667 15.1925 0 
56.6097 14.83 0 
57.8956 16.2944 0 
57.6507 14.8314 0 
57.6545 14.9719 0 
58.1988 16.4312 0 
56.2903 17.1865 0 
57.6597 17.4816 0 
58.7036 18.0352 0 
56.8145 18.4588 0 
57.5245 18.3616 0 
58.1571 19.6607 0 
57.4687 19.3181 0 
56.5669 19.2807 0 
57.587 18.4557 0 
58.6099 19.0383 0 
57.3562 21.3398 0 
58.5329 20.072 0 
58.4673 20.5327 0 
57.5579 20.442 0 
58.4994 20.71 0 
58.3789 20.4416 0 
56.3027 21.1937 0 
58.8682 19.9704 0 
57.0137 22.5238 0 
56.6854 20.1676 0 
57.4708 21.7648 0 
58.4694 20.8502 0 
57.0228 20.989 0 
57.281 22.8192 0 
57.5265 22.5336 0 
57.3671 22.4835 0 
56.2197 23.7636 0 
57.9361 24.5757 0 
58.2025 22.0095 0 
56.9583 26.4474 0 
58.2212 24.6473 0 
58.8984 26.1424 0 
57.1919 24.7831 0 
57.7222 25.4209 0 
57.0034 24.2156 0 
57.9137 24.8083 0 
56.5204 25.8078 0 
57.452 26.0923 0 
57.5204 27.8299 0 
58.1066 28.2094 0 
58.0713 28.3985 0 
58.7197 28.7517 0 
56.6286 28.3908 0 
58.3995 29.2587 0 
57.2942 30.1294 0 
56.6045 30.6847 0 
56.8489 32.2578 0 
58.3772 31.2634 0 
58.1856 30.521 0 
57.6886 31.8464 0 
58.3973 30.9939 0 
56.8947 29.589 0 
56.8881 33.3807 0 
57.7926 32.6492 0 
57.6409 34.0009 0 
56.9931 33.0096 0 
57.9846 32.4367 0 
56.5689 32.6003 0 
57.2895 34.2933 0 
57.0895 32.4974 0 
56.6082 33.2024 0 
58.2179 32.6777 0 
58.7257 32.9437 0 
57.3389 33.8314 0 
58.3622 34.3713 0 
58.4232 34.0414 0 
57.1829 36.6261 0 
56.8609 36.0997 0 
57.1605 35.4906 0 
57.7636 34.1718 0 
57.5949 35.2795 0 
58.5498 37.2241 0 
58.668 36.0979 0 
58.3596 35.0846 0 
58.0111 38.0545 0 
58.5256 36.6723 0 
56.7565 39.4053 0 
57.6092 37.9181 0 
58.8579 36.6723 0 
58.4947 37.464 0 
58.5592 37.6771 0 
61.1089 0.351102 0 
59.261 38.6519 0 
58.9683 37.9199 0 
60.4009 38.4058 0 
60.707 1.11309 0 
59.7928 0.815317 0 
60.4209 0.792777 0 
59.8671 1.0949 0 
60.3415 39.905 0 
58.8723 39.5887 0 
61.3345 1.63038 0 
58.9982 2.32293 0 
59.5221 0.581608 0 
60.4143 1.55239 0 
59.4461 1.64471 0 
60.5592 2.59585 0 
60.9291 2.59177 0 
61.274 3.487 0 
59.1087 2.43668 0 
60.3724 2.34855 0 
60.2713 2.72918 0 
59.7561 4.35146 0 
59.8546 3.92241 0 
58.6695 4.48382 0 
60.4053 1.94278 0 
60.4425 3.47941 0 
60.4091 2.44822 0 
61.3733 3.78614 0 
59.5073 3.50465 0 
59.1546 3.66139 0 
61.051 2.41965 0 
60.0402 5.26407 0 
60.2298 5.00763 0 
60.6041 4.53803 0 
61.1374 4.69306 0 
60.7225 5.17761 0 
60.5379 5.3177 0 
60.1208 5.49536 0 
60.5585 5.49297 0 
61.1663 4.96153 0 
59.8465 4.08279 0 
60.2608 6.79774 0 
60.4159 8.2447 0 
59.0788 8.71059 0 
60.058 7.48686 0 
60.0836 6.79041 0 
58.7931 8.27009 0 
59.3461 8.43879 0 
58.8183 7.82348 0 
60.4699 7.81602 0 
61.5144 8.51418 0 
58.962 7.09081 0 
60.0957 9.51965 0 
60.6061 6.98152 0 
59.9048 8.40985 0 
60.7854 7.07121 0 
58.9068 10.8824 0 
59.2219 9.77429 0 
61.157 11.5923 0 
58.9203 10.8433 0 
60.2216 11.924 0 
60.0337 10.4081 0 
60.2788 9.94845 0 
59.6418 10.3366 0 
60.6177 12.5881 0 
60.5376 9.3679 0 
59.3134 9.96879 0 
60.8998 9.62014 0 
59.1305 9.93474 0 
59.119 12.0509 0 
58.7405 11.4172 0 
60.6113 11.0153 0 
60.0838 8.99383 0 
60.809 11.472 0 
59.6374 13.7809 0 
60.0638 13.8687 0 
59.0379 11.4098 0 
59.2362 14.2323 0 
59.1591 12.5914 0 
59.828 12.6886 0 
58.8969 12.6431 0 
59.5951 12.8377 0 
59.568 13.3692 0 
59.4535 12.6887 0 
59.7606 12.2528 0 
60.569 12.6783 0 
61.3156 13.1239 0 
59.2454 13.838 0 
60.7356 14.3723 0 
59.6044 14.542 0 
60.1753 14.5089 0 
59.9434 15.2319 0 
59.7859 16.2047 0 
59.4854 16.1338 0 
60.6409 17.1782 0 
59.707 16.0784 0 
59.3986 15.3646 0 
59.6035 15.9949 0 
60.9587 15.9602 0 
59.1485 14.3111 0 
59.8103 16.9212 0 
60.548 17.8042 0 
60.7916 18.4808 0 
60.1609 19.3724 0 
60.1508 19.0831 0 
59.15 20.1244 0 
59.0297 19.4765 0 
60.3153 18.6398 0 
60.1607 18.9553 0 
59.2128 17.8189 0 
59.8201 16.8908 0 
59.4913 20.6864 0 
59.6741 20.8812 0 
60.402 19.5686 0 
59.0793 19.7931 0 
59.8893 20.1588 0 
60.7106 21.338 0 
60.4194 21.202 0 
60.2608 21.0654 0 
60.0322 22.008 0 
59.1987 22.119 0 
59.6312 20.7434 0 
59.0502 21.6201 0 
59.6764 20.9211 0 
60.9492 20.7751 0 
60.7413 20.8901 0 
61.0071 20.0189 0 
60.3973 20.1074 0 
59.2048 19.942 0 
59.5807 23.3435 0 
60.6857 23.0875 0 
60.4787 22.6794 0 
60.1075 22.0573 0 
59.9179 23.0402 0 
59.9364 22.5622 0 
60.8125 21.9363 0 
59.28 22.322 0 
59.2253 22.4767 0 
59.1672 23.6499 0 
60.2478 23.7041 0 
59.2252 22.1338 0 
58.9236 23.8581 0 
60.6747 24.0531 0 
60.4549 23.1811 0 
61.3741 23.3687 0 
60.9321 22.0023 0 
60.0017 24.1597 0 
59.0396 26.395 0 
60.7311 24.2422 0 
59.8808 26.0898 0 
61.1258 26.2412 0 
61.1633 25.4793 0 
60.2695 24.7111 0 
60.7976 24.3443 0 
61.1078 24.9292 0 
60.9995 26.0255 0 
59.7738 26.5743 0 
59.7888 25.7369 0 
58.9729 24.9205 0 
58.5862 28.3752 0 
60.795 27.0737 0 
59.0447 28.3128 0 
59.6412 28.1519 0 
60.0136 29.5504 0 
60.9082 27.4649 0 
61.2443 26.797 0 
61.0268 28.8601 0 
59.4008 29.099 0 
[...]
      <PointData Vectors="vector">
        <DataArray type="Float32" Name="Velocity" NumberOfComponents="3" format="ascii">

-247.14 -185.82 0 
-231.477 -103.832 0 
-217.521 -134.619 0 
-235.646 -128.295 0 
-213.191 -122.676 0 
-289.161 -95.4433 0 
-222.55 -80.1049 0 
-204.114 -67.0263 0 
-274.553 -143.539 0 
-287.84 -168.556 0 
-272.794 -128.522 0 
-299.572 -143.621 0 
-257.403 -122.832 0 
-234.299 -105.958 0 
-242.39 -68.8702 0 
-212.744 -14.5479 0 
-209.073 -99.2814 0 
-223.153 26.8194 0 
-256.411 -57.0261 0 
-271.783 -199.105 0 
-271.956 -180.248 0 
-242.108 -194.935 0 
-246.312 -189.941 0 
-248.378 -180.165 0 
-242.773 -151.807 0 
-294.385 -148.478 0 
-178.077 69.744 0 
-269.692 -147.603 0 
-295.704 -139.177 0 
-277.724 -140.222 0 
-283.187 -146.412 0 
-241.624 -185.022 0 
-209.297 -174.374 0 
-176.138 -34.5058 0 
-223.787 -124.06 0 
-204.734 -131.787 0 
-268.018 -27.4403 0 
-288.36 -89.1262 0 
-198.228 -128.506 0 
-191.619 68.6967 0 
-212.469 -115.984 0 
-230.946 -131.507 0 
-222.997 -111.162 0 
-230.716 -131.062 0 
-204.241 -126.094 0 
-235.337 -108.461 0 
-266.656 -138.493 0 
-254.092 -24.5916 0 
-257.24 -111.253 0 
-249.536 -105.76 0 
-271.516 -122.304 0 
-219.509 -64.6439 0 
-199.717 -69.6542 0 
-259.898 -59.822 0 
-255.17 -233.023 0 
-233.699 -141.643 0 
-232.002 -103.621 0 
-256.969 -81.768 0 
-194.05 -86.6165 0 
-247.32 -48.7207 0 
-276.412 -95.3129 0 
-258.28 -92.3444 0 
-278.711 -46.6602 0 
-233.258 155.085 0 
-268.553 -65.9788 0 
-236.19 36.3996 0 
-226.931 -71.0356 0 
-265.769 -189.218 0 
-234.999 -183.784 0 
-254.914 -59.9761 0 
-224.466 -39.6353 0 
-204.087 -46.7514 0 
-256.793 -33.7578 0 
-268.715 -58.754 0 
-240.373 -201.455 0 
-252.824 -29.6899 0 
-236.441 -135.32 0 
-236.982 -216.451 0 
-247.126 -164.426 0 
-266.494 -25.4723 0 
-221.744 -147.199 0 
-229.41 -0.00786688 0 
-253.843 -40.4999 0 
-236.352 -29.7059 0 
-207.852 -119.66 0 
-254.345 -123.098 0 
-194.557 -33.5338 0 
-247.976 -184.523 0 
-247.396 -169.103 0 
-229.591 -195.707 0 
-264.434 -49.0813 0 
-227.046 -152.868 0 
-246.511 -180.216 0 
-220.337 30.0548 0 
-264.894 -64.2518 0 
-240.435 -155.954 0 
-275.44 -157.855 0 
-316.583 -141.866 0 
-233.401 -16.7352 0 
-272.99 -58.0921 0 
-208.713 -116.511 0 
-216.933 -76.3071 0 
-283.992 -128.993 0 
-171.202 108.072 0 
-243.054 -138.24 0 
-242.746 -102.51 0 
-227.089 -45.1238 0 
-238.068 -73.652 0 
-288.326 -71.5498 0 
-275.428 -84.5452 0 
-215.676 -75.7287 0 
-227.342 -147.587 0 
-233.043 -91.6782 0 
-205.544 -77.3067 0 
-276.15 -78.9526 0 
-230.9 -91.5128 0 
-233.865 -83.807 0 
-261.268 -213.411 0 
-238.919 -77.5132 0 
-254.821 -123.421 0 
-230.588 -83.461 0 
-263.121 -192.35 0 
-278.152 -106.281 0 
-279.778 -109.113 0 
-229.573 -32.662 0 
-209.765 -48.4997 0 
-185.599 -76.8479 0 
-231.169 -61.9406 0 
-217.935 -187.968 0 
-221.751 49.146 0 
-202.59 -47.3034 0 
-257.043 -91.0247 0 
-255.745 -156.69 0 
-215.966 -29.3322 0 
-192.35 -72.0895 0 
-293.547 -233.02 0 
-203.065 -183.051 0 
-249.484 -161.242 0 
-278.506 -126.795 0 
-232.982 -58.3473 0 
-294.269 -208.343 0 
-236.282 -150.125 0 
-269.343 -167.878 0 
-292.83 -54.4007 0 
-194.147 -68.2874 0 
-245.843 -154.748 0 
-283.827 -80.8308 0 
-237.095 -98.9285 0 
-240.64 -190.825 0 
-261.935 -213.701 0 
-193.78 33.817 0 
-212.268 -180.612 0 
-239.904 -131.153 0 
-291.865 -26.2385 0 
-266.381 -210.55 0 
-238.509 -52.1814 0 
-254.951 -191.807 0 
-268.74 -188.703 0 
-271.775 -125.049 0 
-260.449 -216.808 0 
-255.974 -175.906 0 
-267.303 -168.836 0 
-207.237 -173.553 0 
-256.53 -49.1577 0 
-212.295 -153.179 0 
-269.453 -161.219 0 
-261.564 -53.9561 0 
-245.22 -69.7138 0 
-247.586 -89.5856 0 
-211.876 -163.131 0 
-271.97 -122.582 0 
-284.029 -154.047 0 
-280.466 -161.691 0 
-302.389 -170.864 0 
-315.681 -184.361 0 
-291.677 -61.372 0 
-188.505 -30.0612 0 
-246.985 -165.933 0 
-250.63 -28.0855 0 
-244.417 -175.488 0 
-273.068 -163.053 0 
-244.822 -181.926 0 
-249.023 -176.891 0 
-231.944 -156.333 0 
-286.282 -164.059 0 
-217.856 -132.151 0 
-281.401 -171.522 0 
-281.89 -155.234 0 
-229.064 -152.271 0 
-253.603 -115.967 0 
-258.498 -126.491 0 
-268.549 -169.374 0 
-275.261 -175.849 0 
-251.344 9.44049 0 
-194.992 52.763 0 
-242.993 7.24528 0 
-267.199 -135.452 0 
-205.48 -124.096 0 
-157.936 -115.236 0 
-210.508 14.7587 0 
-223.087 23.583 0 
-220.275 -127.65 0 
-256.906 -111.066 0 
-227.557 -150.811 0 
-237.9 -128.262 0 
-201.905 -38.8009 0 
-216.583 -154.8 0 
-240.575 -105.733 0 
-226.58 -107.987 0 
-256.485 -132.813 0 
-247.448 -152.567 0 
-240.015 -167.059 0 
-275.119 -136.884 0 
-210.968 -162.702 0 
-204.119 -131.907 0 
-310.088 -165.48 0 
-208.052 -132.479 0 
-239.893 -107.136 0 
-277.004 -132.977 0 
-213.701 47.5454 0 
-244.697 -96.8817 0 
-265.855 -79.7201 0 
-255.22 33.2598 0 
-227.419 -105.118 0 
-230.346 -93.1881 0 
-215.664 -85.1376 0 
-221.114 -121.788 0 
-220.96 -129.196 0 
-260.518 -260.221 0 
-158.779 98.2539 0 
-201.278 -112.764 0 
-217.646 -127.903 0 
-261.366 -246.318 0 
-257.423 -102.119 0 
-213.803 -24.7476 0 
-244.065 -27.7268 0 
-218.24 -50.057 0 
-214.051 8.53436 0 
-271.372 -123.508 0 
-240.402 -189.588 0 
-280.465 -84.1858 0 
-228.847 -89.3273 0 
-244.054 -75.5143 0 
-246.112 -97.554 0 
-236.227 -92.3153 0 
-201.703 -99.9883 0 
-213.267 -14.7336 0 
-206.882 -79.3543 0 
-243.815 -115.799 0 
-257.697 -171.346 0 
-238.097 -189.308 0 
-251.256 -88.5229 0 
-249.12 -134.66 0 
-214.868 -39.4009 0 
-249.451 -61.928 0 
-254.833 -97.8802 0 
-236.017 -196.064 0 
-218.56 -178.129 0 
-245.546 -196.551 0 
-271.89 -223.299 0 
-219.612 -201.048 0 
-227.085 27.4076 0 
-268.065 -186.452 0 
-231.28 -177.906 0 
-193.78 -47.6042 0 
-236.237 -95.8766 0 
-265.575 -38.7688 0 
-268.084 -75.7017 0 
-244.812 -195.189 0 
-233.191 -57.0782 0 
-250.95 -219.115 0 
-229.594 -208.183 0 
-264.097 -227.965 0 
-263.519 -208.461 0 
-222.975 -175.524 0 
-231.608 -66.8124 0 
-266.705 -159.539 0 
-227.205 -202.385 0 
-234.946 -78.9248 0 
-246.276 -56.2648 0 
-234.6 -174.386 0 
-228.832 -190.468 0 
-258.928 -76.6859 0 
-260.856 -220.458 0 
-259.154 -196.481 0 
-237.438 -192.26 0 
-239.444 -86.1227 0 
-256.423 -192.57 0 
-253.135 -71.8692 0 
-264.782 -149.362 0 
-212.336 -203.542 0 
-243.235 -183.733 0 
-287.08 -214.484 0 
-224.975 -168.425 0 
-247.334 -177.982 0 
-261.476 -191.127 0 
-270.998 -68.8155 0 
-222.598 76.1453 0 
-203.427 -143.618 0 
-223.501 -205.518 0 
-215.681 -61.5853 0 
-183.505 -188.983 0 
-249.554 -65.7129 0 
-258.858 -199.638 0 
-200.991 54.4591 0 
-238.567 -29.5879 0 
-261.187 -209.807 0 
-195.192 42.0911 0 
-255.921 -166.473 0 
-276.71 -214.429 0 
-271.672 -237.319 0 
-225.297 -40.3079 0 
-284.107 -177.54 0 
-252.783 -201.123 0 
-283.084 -196.154 0 
-227.807 -16.5343 0 
-240.756 -46.2103 0 
-218.504 -199.963 0 
-226.588 -74.6392 0 
-263.635 -63.5856 0 
-258.386 -165.195 0 
-222.414 -166.927 0 
-189.908 64.4332 0 
-260.992 -183.283 0 
-216.108 -147.19 0 
-258.048 -27.7465 0 
-202.432 52.4101 0 
-204.563 -57.3616 0 
-287.068 -166.588 0 
-277.37 -166.983 0 
-254.486 -171.593 0 
-213.289 -195.004 0 
-228.654 -53.7355 0 
-227.076 -45.6616 0 
-250.15 -168.531 0 
-272.123 -144.364 0 
-271.264 -150.728 0 
-269.204 -150.794 0 
-244.388 -178.253 0 
-253.423 5.32835 0 
-232.128 -45.9843 0 
-238.784 -147.245 0 
-191.027 -2.0974 0 
-249.312 -146.962 0 
-240.336 -166.206 0 
-208.376 9.43849 0 
-257.767 -125.872 0 
-242.875 -149.344 0 
-252.84 -43.5918 0 
-243.745 3.20524 0 
-242.44 -53.8387 0 
-228.316 -59.9273 0 
-214.148 52.543 0 
-204.174 65.3839 0 
-195.559 -111.756 0 
-236.603 -187.016 0 
-232.954 -145.516 0 
-219.178 -105.863 0 
-259.898 -151.16 0 
-248.614 -175.954 0 
-265.46 -158.532 0 
-220.524 -157.894 0 
-224.933 -69.9687 0 
-188.196 -118.37 0 
-265.192 -155.198 0 
-195.643 -39.2365 0 
-228.019 -19.7512 0 
-244.376 -164.249 0 
-238.806 -2.6911 0 
-207.091 -83.8298 0 
-183.149 31.6707 0 
-279.093 -180.869 0 
-269.712 -130.272 0 
-223.037 -1.69974 0 
-223.119 83.0684 0 
-225.606 -157.239 0 
-273.187 -137.017 0 
-219.77 -82.9293 0 
-245.927 -115.733 0 
-231.286 -171.292 0 
-233.79 -20.8627 0 
-235.279 -110.773 0 
-242.439 -104.526 0 
-243.636 -123.467 0 
-137.714 103.189 0 
-229.224 -138.73 0 
-257.477 -130.843 0 
-244.793 -102.15 0 
-200.607 -134.198 0 
-254.566 -90.464 0 
-240.775 -92.0753 0 
-255.328 -132.753 0 
-221.201 -124.918 0 
-300.729 -157.245 0 
-267.483 -98.0603 0 
-232.239 -220.889 0 
-191.067 -71.2255 0 
-179.545 -115.219 0 
-195.345 -95.3569 0 
-279.984 -268.985 0 
-226.38 10.4634 0 
-169.482 -16.0487 0 
-305.624 -126.169 0 
-211.931 -89.4163 0 
-278.916 -84.6312 0 
-287.466 -134.447 0 
-208.714 -79.8916 0 
-210.613 -105.141 0 
-229.668 -95.8024 0 
-207.291 -97.7061 0 
-192.616 -70.2024 0 
-297.929 -237.306 0 
-206.012 -227.874 0 
-217.683 -86.1004 0 
-240.627 -80.4949 0 
-230.91 -80.0121 0 
-234.112 -217.703 0 
-203.849 -72.7754 0 
-267.568 -57.0444 0 
-262.682 -141.73 0 
-203.652 -50.4116 0 
-262.708 -120.333 0 
-244.529 -78.9664 0 
-216.716 -228.115 0 
-234.646 -101.394 0 
-191.01 -38.1076 0 
-269.23 -180.458 0 
-185.558 -128.9 0 
-250.12 -223.585 0 
-242.067 -1.983 0 
-209.486 -99.1367 0 
-192.184 -77.2973 0 
-217.237 -201.865 0 
-242.359 -135.47 0 
-265.531 -170.852 0 
-208.359 -185.305 0 
-241.418 -190.474 0 
-212.334 -174.249 0 
-189.294 -55.2986 0 
-273.489 -186.687 0 
-221.83 -69.3231 0 
-242.405 -183.391 0 
-258.768 -243.738 0 
-274.049 -195.722 0 
-248.108 -222.877 0 
-204.85 -87.4778 0 
-213.123 -207.536 0 
-235.205 -106.596 0 
-224.002 -232.003 0 
-237.237 -215.959 0 
-217.901 -226.266 0 
-228.515 -203.647 0 
-217.119 -116.735 0 
-185.181 -86.161 0 
-244.029 -55.142 0 
-209.506 -73.7686 0 
-210.629 -84.694 0 
-237.277 -192.066 0 
-249.791 -198.749 0 
-230.554 -217.121 0 
-240.409 -208.583 0 
-239.137 -149.321 0 
-190.932 -230.257 0 
-202.795 -94.7128 0 
-294.597 -200.99 0 
-254.872 -124.313 0 
-271.256 -70.7135 0 
-164.36 -164.823 0 
-253.992 -177.811 0 
-247.666 -194.135 0 
-261.21 -154.86 0 
-275.767 -203.217 0 
-245.049 -182.637 0 
-242.18 -205.088 0 
-246.21 -212.953 0 
-280.146 -138.7 0 
-215.426 -154.309 0 
-238.205 -151.507 0 
-204.976 -211.507 0 
-255.91 -219.795 0 
-234.326 -61.0979 0 
-233.742 -191.38 0 
-255.22 -155.48 0 
-301.406 -126.756 0 
-226.77 -81.9225 0 
-272.914 -186.421 0 
-275.811 -81.4804 0 
-192.89 -58.1235 0 
-250.057 -178.939 0 
-263.647 -50.337 0 
-259.79 -56.0376 0 
-253.97 -204.277 0 
-175.826 -161.386 0 
-268.348 -164.309 0 
-242.103 -93.4115 0 
-231.469 -194.471 0 
-200.778 -73.4278 0 
-246.198 -169.194 0 
-192.838 61.2917 0 
-252.749 -149.154 0 
-239.809 -160.547 0 
-161.976 58.9556 0 
-252.286 -181.111 0 
-253.965 -64.4076 0 
-253.566 -204.621 0 
-245.094 -182.958 0 
-251.793 -204.964 0 
-216.325 -165.855 0 
-240.377 -222.974 0 
-192.844 -189.068 0 
-267.004 -208.041 0 
-242.116 -199.16 0 
-135.855 64.3111 0 
-220.289 -175.755 0 
-253.118 -206.985 0 
-243.105 -204.432 0 
-204.577 -166.842 0 
-220.168 -46.6886 0 
-254.499 -152.334 0 
-226.595 -12.5833 0 
-230.584 -147.428 0 
-283.647 -168.466 0 
-193.488 -199.764 0 
-246.331 -152.344 0 
-225.786 -191.156 0 
-239.751 -213.44 0 
-208.297 -163.751 0 
-177.8 -156.872 0 
-206.646 -190.362 0 
-230.972 -38.1778 0 
-265.004 -189.431 0 
-261.274 -187.776 0 
-221.401 -130.997 0 
-187.928 -51.9306 0 
-233.01 -20.4516 0 
-259.327 -26.1999 0 
-259.338 -3.79646 0 
-208.798 60.012 0 
-256.405 -6.23677 0 
-224.677 -124.472 0 
-229.188 -158.466 0 
-195.283 -133.254 0 
-266.729 -145.058 0 
-279.112 -150.442 0 
-275.501 -143.954 0 
-218.818 -159.936 0 
-256.196 -130.129 0 
-237.888 -2.57287 0 
-217.511 -141.731 0 
-265.104 -151.059 0 
-182.73 -131.522 0 
-227.495 -22.4333 0 
-237.577 -27.5799 0 
-198.999 -136.342 0 
-236.749 -170.64 0 
-194.736 -125.679 0 
-247.224 -144.12 0 
-198.649 -142.221 0 
-261.193 -95.7615 0 
-232.312 -163.122 0 
-202.077 -154.632 0 
-277.718 -116.749 0 
-260.349 -170.184 0 
-225.64 -121.427 0 
-245.082 -298.262 0 
-244.13 -142.318 0 
-182.333 -3.60497 0 
-281.832 -248.872 0 
-199.552 -15.6997 0 
-258.359 -151.745 0 
-238.785 -139.395 0 
-261.065 -176.373 0 
-177.083 91.4007 0 
-245.747 -148.676 0 
-254.808 -163.347 0 
-249.72 -147.223 0 
-190.384 -133.837 0 
-273.657 -225.237 0 
-235.878 -178.276 0 
-253.461 -239.637 0 
-172.032 -36.1847 0 
-245.732 -143.23 0 
-280.863 -123.326 0 
-274.171 -144.484 0 
-219.926 -116.62 0 
-270.864 -129.574 0 
-254.409 -155.407 0 
-235.825 -135.329 0 
-225.358 -180.814 0 
-203.413 -121.077 0 
-259.421 -165.964 0 
-255.518 -137.94 0 
-215.546 -99.1105 0 
-249.448 -136.929 0 
-224.04 -140.79 0 
-216.917 -126.665 0 
-300.715 -140.357 0 
-207.77 -252.335 0 
-246.282 -154.071 0 
-271.304 -292.715 0 
-276.456 -148.956 0 
-177.066 -107.899 0 
-231.325 -150.36 0 
-223.701 -142.598 0 
-255.825 -132.812 0 
-182.474 -150.362 0 
-217.461 -63.3713 0 
-198.704 -26.4293 0 
-213.663 -125.354 0 
-238.815 -125.015 0 
-246.097 -221.091 0 
-283.922 -106.02 0 
-287.453 -234.588 0 
-244.732 -13.0631 0 
-237.304 -99.4173 0 
-230.744 -267.732 0 
-250.904 -236.741 0 
-196.223 0.721491 0 
-222.769 101.307 0 
-262.948 -145.076 0 
-189.072 -11.8652 0 
-189.749 116.043 0 
-276.505 -134.189 0 
-209.127 -116.22 0 
-242.654 -94.5283 0 
-279.669 -68.7802 0 
-215.457 -211.835 0 
-265.29 -230.278 0 
-261.65 -128.47 0 
-246.394 -227.118 0 
-211.87 -27.1654 0 
-262.168 -133.075 0 
-265.334 -226.553 0 
-218.446 -43.6103 0 
-208.77 -99.9432 0 
-264.151 -113.512 0 
-196.747 -117.349 0 
-169.588 90.142 0 
-207.107 -82.5702 0 
-246.223 -89.907 0 
-242.928 -149.462 0 
-199.807 -106.407 0 
-229.628 -81.6448 0 
-238.584 -198.497 0 
-264.83 -127.087 0 
-289.221 -118.978 0 
-239.686 -33.2568 0 
-227.925 -96.8648 0 
-219.173 -133.19 0 
-225.651 -99.0251 0 
-206.141 -105.276 0 
-214.035 -120.488 0 
-215.036 -111.859 0 
-236.203 -72.0284 0 
-200.268 -111.842 0 
-235.057 -63.9742 0 
-243.797 -192.593 0 
-257.495 -194.765 0 
-257.363 -69.0481 0 
-260.771 -101.947 0 
-265.607 -57.4717 0 
-223.519 -212.979 0 
-231.692 31.0144 0 
-255.084 -86.777 0 
-218.07 -47.08 0 
-236.571 -200.079 0 
-219.956 -203.175 0 
-225.143 -103.81 0 
-249.607 -84.0328 0 
-211.872 -94.7439 0 
-252.866 -199.746 0 
-246.053 -212.699 0 
-245.243 -94.2261 0 
-196.148 31.4012 0 
-227.065 -72.3885 0 
-203.403 -240.962 0 
-223.377 -219.38 0 
-209.094 -197.621 0 
-280.059 -83.9338 0 
-263.351 -231.391 0 
-237.269 -221.269 0 
-249.651 -94.4251 0 
-244.673 -212.619 0 
-270.564 -201.948 0 
-281.669 -207.374 0 
-215.766 -115.308 0 
-185.085 -50.8132 0 
-200.075 -77.6168 0 
-239.434 -114.675 0 
-250.027 -76.4764 0 
-184.167 -127.967 0 
-246.866 -44.4212 0 
-197.96 -46.899 0 
-224.617 -161.589 0 
-230.086 -222.712 0 
-202.496 -188.001 0 
-244.575 -176.902 0 
-227.579 -182.95 0 
-227.189 -78.0444 0 
-178.46 -51.5074 0 
-229.255 -196.858 0 
-239.31 -100.749 0 
-281.945 -177.869 0 
-211.623 -77.7996 0 
-240.072 -203.393 0 
-222.971 -160.072 0 
-220.707 -182.343 0 
-238.564 -183.954 0 
-225.8 -125.098 0 
-264.426 -132.678 0 
-209.49 -59.7615 0 
-212.781 -90.6951 0 
-254.131 -116.314 0 
-217.235 -101.257 0 
-230.385 -232.827 0 
-252.512 -206.458 0 
-230.684 -171.179 0 
-252.776 -208.563 0 
-259.951 -157.341 0 
-235.727 -171.405 0 
-273.605 -196.616 0 
-207.535 -138.261 0 
-193.582 -80.4022 0 
-225.699 -79.5194 0 
-256.575 -211.308 0 
-222.061 -78.3919 0 
-227.825 -80.3873 0 
-195.642 -57.072 0 
-227.268 -88.7912 0 
-268.426 -75.2582 0 
-225.662 -171.695 0 
-217.144 -72.8943 0 
-262.208 -94.6095 0 
-241.41 -163.428 0 
-217.695 -56.6238 0 
-219.756 -220.804 0 
-241.722 -122.992 0 
-217.254 -193.743 0 
-252.87 -168.529 0 
-199.16 -216.379 0 
-280.365 -174.571 0 
-251.573 -164.372 0 
-207.407 -197.899 0 
-163.476 -56.0391 0 
-198.348 -103.825 0 
-191.769 -145.473 0 
-274.056 -159.705 0 
-239.46 -190.391 0 
-225.235 -172.393 0 
-239.237 -63.0352 0 
-238.912 -51.1032 0 
-204.873 -2.91721 0 
-238.577 -94.0216 0 
-226.957 -73.9736 0 
-232.52 -56.5744 0 
-258.13 -195.881 0 
-256.179 -160.203 0 
-213.134 -190.226 0 
-236.115 -183.01 0 
-237.621 -161.199 0 
-238.828 -177.076 0 
-207.76 -191.382 0 
-237.406 -63.993 0 
-263.824 -176.617 0 
-210.172 -194.54 0 
-217.389 -157.319 0 
-238.019 -197.142 0 
-209.2 -180.461 0 
-249.286 -50.6111 0 
-211.63 -169.998 0 
-235.21 -56.7936 0 
-250.254 -163.399 0 
-218.575 -187.595 0 
-206.89 -195.798 0 
-238.611 -159.758 0 
-226.68 -161.149 0 
-227.7 -180.32 0 
-280.207 -167.574 0 
-272.514 -167.461 0 
-237.97 -176.433 0 
-213.492 -149.161 0 
-227.218 -142.352 0 
-246.8 -124.534 0 
-243.467 -15.5484 0 
-284.302 -153.362 0 
-228.764 -167.097 0 
-163.241 76.357 0 
-198.148 -63.1707 0 
-186.998 -196.849 0 
-228.803 -154.537 0 
-236.231 -179.52 0 
-222.208 -148.788 0 
-205.368 -45.8181 0 
-252.229 -235.04 0 
-250.953 -120.29 0 
-214.886 -41.9708 0 
-155.598 65.9064 0 
-197.125 -7.83813 0 
-240.628 -183.853 0 
-222.325 -181.413 0 
-232.697 -58.4898 0 
-256.187 -139.89 0 
-249.323 -183.496 0 
-234.555 -157.509 0 
-257.022 -174.178 0 
-205.691 -7.46313 0 
-225.841 -138.967 0 
-272.636 -185.121 0 
-277.3 -161.448 0 
-247.003 -135.576 0 
-259.526 -188.09 0 
-288.526 -25.934 0 
-246.948 -167.169 0 
-269.678 -40.2658 0 
-246.722 -29.1316 0 
-247.254 -171.853 0 
-263.141 -166.619 0 
-256.575 -195.085 0 
-254.633 -143.33 0 
-218.641 -32.249 0 
-235.258 -166.399 0 
-255.893 -143.04 0 
-235.57 -136.553 0 
-232.331 -139.376 0 
-227.021 -190.145 0 
-255.46 -111.074 0 
-225.207 -149.679 0 
-261.014 -120.651 0 
-266.762 -135.731 0 
-265.523 -27.0067 0 
-252.145 -132.219 0 
-228.679 -168.879 0 
-231.931 -205.669 0 
-277.998 -156.679 0 
-197.108 -144.63 0 
-204.697 -176.478 0 
-213.018 -42.9377 0 
-286.142 -208.349 0 
-252.354 -14.9557 0 
-194.537 -151.308 0 
-205.449 -51.8942 0 
-236.741 -127.816 0 
-233.053 -254.132 0 
-228.668 -196.721 0 
-251.621 -142.533 0 
-266.484 -165.525 0 
-187.935 -164.941 0 
-301.325 -163.166 0 
-191.891 -183.197 0 
-245.396 -142.974 0 
-231.639 -154.11 0 
-202.242 -14.5639 0 
-224.797 -162.574 0 
-264.954 -174.43 0 
-198.215 -163.132 0 
-175.52 -146.249 0 
-245.664 -134.352 0 
-290.923 -161.332 0 
-237.142 -117.626 0 
-240.754 -153.602 0 
-209.008 -116.413 0 
-213.98 -162.861 0 
-278.415 18.2924 0 
-253.734 -158.288 0 
-221.183 -160.046 0 
-230.379 -156.023 0 
-233.466 -240.796 0 
-264.297 -156.635 0 
-155.013 -57.2513 0 
-176.082 -9.12608 0 
-264.012 -171.019 0 
-205.937 -155.444 0 
-232.128 -152.635 0 
-210.469 -115.769 0 
-226.764 -94.6321 0 
-269.779 -145.012 0 
-261.56 -126.687 0 
-245.711 -161.532 0 
-231.443 -128.549 0 
-255.737 -131.934 0 
-229.941 -253.919 0 
-275.253 -234.4 0 
-258.952 -176.588 0 
-238.351 -124.987 0 
-252.164 -124.561 0 
-184.778 -116.466 0 
-154.692 -88.3486 0 
-227.912 -106.82 0 
-223.777 -98.4016 0 
-245.266 -96.0581 0 
-225.145 -153.252 0 
-207.76 -113.512 0 
-214.467 -215.947 0 
-224.023 -109.014 0 
-223.182 -110.519 0 
-228.388 -140.672 0 
-202.749 -158.499 0 
-238.977 -165.343 0 
-239.012 -125.724 0 
-222.607 -134.799 0 
-215.914 -220.313 0 
-212.165 -155.357 0 
-243.3 -150.174 0 
-263.254 -147.346 0 
-239.883 -15.5242 0 
-213.429 -130.394 0 
-262.056 -229.753 0 
-224.313 -240.263 0 
-261.91 -129.776 0 
-204.851 18.5648 0 
-194.118 -11.1326 0 
-181.222 -125.235 0 
-223.789 -136.863 0 
-260.84 -145.058 0 
-212.801 -84.1499 0 
-248.334 -126.738 0 
-222.107 -218.183 0 
-247.755 -235.956 0 
-200.393 -246.917 0 
-242.301 -120.557 0 
-175.382 96.8154 0 
-251.683 -222.004 0 
-247.151 -214.961 0 
-220.5 -151.051 0 
-247.975 -24.1874 0 
-224.108 -120.613 0 
-179.059 -15.7164 0 
-238.724 -2.05808 0 
-205.646 -241.02 0 
-235.126 -93.7402 0 
-182.692 119.374 0 
-236.527 -117.079 0 
-224.467 7.33411 0 
-198.685 -196.678 0 
-240.078 -237.176 0 
-267.336 -250.907 0 
-240.649 -112.64 0 
-255.263 -223.303 0 
-241.891 -94.1383 0 
-220.777 -119.09 0 
-268.735 -160.071 0 
-246.64 -199.602 0 
-226.4 -221.385 0 
-235.288 -80.0022 0 
-271.344 -79.8957 0 
-235.235 -77.2747 0 
-191.62 -215.018 0 
-207.511 20.7434 0 
-211.322 -74.8677 0 
-232.275 -130.728 0 
-220.509 -111.97 0 
-258.196 -200.025 0 
-251.51 -179.008 0 
-190.972 -122.48 0 
-269.569 -65.8359 0 
-252.815 -66.5496 0 
-217.173 -209.493 0 
-180.04 -167.636 0 
-193.444 -209.872 0 
-217.171 -124.532 0 