<VTKFile type="UnstructuredGrid" version="0.1" byte_order="BigEndian">
  <UnstructuredGrid>
        <Piece NumberOfPoints="8000" NumberOfCells="0" Time= "0.09">      <Points>
        <DataArray name="Position" type="Float32"  NumberOfComponents= "3"  format="ascii">

112.21 11.2074 0 
112.107 11.4559 0 
111.756 12.2518 0 
112.093 11.4936 0 
112.098 11.4949 0 
112.21 11.3146 0 
111.989 12.161 0 
112.176 11.364 0 
112.088 11.6066 0 
111.803 12.2546 0 
112.124 11.4217 0 
111.303 12.3436 0 
111.463 12.0181 0 
111.389 16.1958 0 
111.979 16.62 0 
111.639 17.1753 0 
112.271 16.5268 0 
111.88 16.4352 0 
111.606 16.2359 0 
110.976 17.056 0 
111.716 16.4094 0 
110.999 17.1866 0 
112.059 16.5282 0 
111.014 17.0861 0 
111.534 16.2663 0 
111.953 15.9689 0 
111.804 16.1623 0 
111.051 16.9987 0 
111.024 15.5925 0 
112.106 17.161 0 
111.427 19.8602 0 
111.03 20.0761 0 
111.567 19.9991 0 
111.596 19.0464 0 
111.244 18.8789 0 
111.391 20.0058 0 
111.714 19.7243 0 
111.046 19.996 0 
111.435 20.1115 0 
111.009 19.8609 0 
112.024 20.2078 0 
111.761 19.7763 0 
111.665 18.8541 0 
111.42 20.2789 0 
111.03 20.0444 0 
111.61 20.0876 0 
111.626 20.2157 0 
111.708 20.1741 0 
111.538 20.238 0 
111.222 18.8925 0 
111.806 19.7297 0 
111.309 19.6329 0 
111.305 19.5859 0 
111.499 20.1928 0 
111.713 18.29 0 
112.026 20.1934 0 
111.57 20.0201 0 
111.06 19.5227 0 
111.598 19.0376 0 
110.611 20.2237 0 
111.004 20.3444 0 
111.047 20.4677 0 
111.666 20.6183 0 
111.034 20.6664 0 
110.61 20.1912 0 
111.204 20.4681 0 
111.216 20.6282 0 
111.3 20.5866 0 
111.147 20.6277 0 
111.407 20.3892 0 
111.11 20.5819 0 
111.671 20.5805 0 
111.159 20.4325 0 
110.696 23.2921 0 
113.529 11.3894 0 
112.381 11.2077 0 
112.265 11.2575 0 
112.116 11.6603 0 
113.436 11.6102 0 
114.47 11.7614 0 
112.369 11.2551 0 
114.59 11.2578 0 
114.338 11.2987 0 
113.436 11.7225 0 
113.255 11.8191 0 
112.603 11.1502 0 
114.784 11.0666 0 
112.55 11.225 0 
113.671 11.4407 0 
114.454 11.2492 0 
114.119 11.3661 0 
112.345 11.3654 0 
114.443 11.8433 0 
114.33 11.3002 0 
114.164 11.9277 0 
113.873 11.4813 0 
112.523 11.4746 0 
112.468 11.5722 0 
112.499 11.5784 0 
113.719 11.5342 0 
113.38 11.5061 0 
112.47 11.518 0 
112.26 11.2134 0 
113.438 11.502 0 
114.023 11.3464 0 
113.573 11.34 0 
112.415 11.4742 0 
112.545 11.2182 0 
113.367 11.7036 0 
113.897 11.3959 0 
113.77 11.3287 0 
113.534 11.6899 0 
114.07 10.9855 0 
112.432 10.9603 0 
113.614 11.6995 0 
113.45 13.359 0 
113.354 13.466 0 
112.906 14.5893 0 
113.341 13.3583 0 
114.632 13.3046 0 
113.988 14.7525 0 
114.277 14.1537 0 
114.649 13.9998 0 
113.544 14.3212 0 
114.58 14.0522 0 
113.456 12.9762 0 
114.298 13.5981 0 
114.282 14.618 0 
114.187 13.0002 0 
113.828 14.7195 0 
112.774 14.4914 0 
113.766 14.6267 0 
114.301 12.9422 0 
114.296 13.2917 0 
114.523 14.4282 0 
113.594 14.5247 0 
114.526 13.2637 0 
113.538 14.5035 0 
113.98 14.7559 0 
114.252 12.7351 0 
112.188 13.9299 0 
113.736 12.764 0 
113.491 13.353 0 
113.806 14.4476 0 
113.604 14.2073 0 
114.407 14.2931 0 
113.387 13.3864 0 
113.446 13.4198 0 
113.173 13.7773 0 
113.774 14.3975 0 
113.673 14.147 0 
114.591 12.7951 0 
113.834 14.4848 0 
114.313 14.482 0 
113.774 14.6067 0 
114.61 12.8161 0 
113.647 13.0219 0 
114.154 13.0364 0 
113.552 13.2764 0 
113.465 13.0832 0 
114.412 14.3015 0 
114.015 13.0447 0 
113.19 13.7887 0 
113.468 13.6337 0 
112.33 13.7674 0 
114.536 13.8466 0 
113.948 14.7405 0 
114.04 13.024 0 
113.259 12.6557 0 
113.791 14.4672 0 
113.287 13.3694 0 
113.821 14.529 0 
113.504 14.6101 0 
114.192 13.6425 0 
114.675 13.1691 0 
113.034 13.1015 0 
113.401 14.3845 0 
114.336 13.3416 0 
114.457 13.2774 0 
114.389 14.5432 0 
114.276 12.7079 0 
113.748 13.5098 0 
113.406 13.4827 0 
113.983 14.7514 0 
114.438 14.6257 0 
112.176 13.9269 0 
114.183 13.0289 0 
113.373 13.1699 0 
114.456 13.2612 0 
113.783 14.681 0 
113.559 14.5477 0 
114.615 13.9934 0 
113.533 14.5617 0 
114.379 14.5678 0 
114.483 13.2543 0 
113.054 13.8961 0 
113.905 14.1319 0 
114.508 14.6131 0 
112.928 13.591 0 
113.869 13.8139 0 
114.336 13.3512 0 
112.323 13.4868 0 
114.449 12.8973 0 
112.241 13.7312 0 
113.883 14.2528 0 
113.05 14.1273 0 
114.49 14.4731 0 
114.262 13.4541 0 
114.322 13.526 0 
114.459 12.6657 0 
113.026 12.4811 0 
114.551 14.1363 0 
112.34 13.4323 0 
113.613 14.7216 0 
113.357 14.4635 0 
112.553 15.6023 0 
113.265 16.8309 0 
113.854 15.0241 0 
113.614 15.8354 0 
113.41 16.5255 0 
114.773 16.6907 0 
112.559 16.5944 0 
113.632 16.8539 0 
113.907 15.7999 0 
112.818 16.7938 0 
114.703 16.233 0 
114.548 16.2332 0 
112.781 15.7453 0 
113.838 16.0284 0 
114.01 15.9769 0 
114.068 16.6983 0 
113.367 15.7538 0 
113.869 15.0157 0 
113.625 16.0867 0 
114.195 16.8651 0 
114.166 16.6858 0 
113.358 17.2872 0 
113.58 15.0566 0 
112.938 17.1509 0 
112.465 14.9285 0 
114.557 15.8063 0 
112.748 15.2896 0 
113.927 16.675 0 
112.562 16.3092 0 
112.861 16.1059 0 
113.708 16.3145 0 
113.505 16.8962 0 
114.581 16.3727 0 
114.22 15.7377 0 
114.559 16.832 0 
114.613 17.4312 0 
112.817 16.6071 0 
114.077 15.7288 0 
114.551 16.6192 0 
114.394 16.564 0 
112.462 15.5693 0 
112.687 15.7624 0 
114.453 15.6677 0 
113.532 16.4887 0 
113.725 15.4241 0 
113.789 17.076 0 
114.629 16.4458 0 
114.067 16.5293 0 
113.848 15.6179 0 
114.66 15.3974 0 
112.584 16.5012 0 
112.98 16.4 0 
113.375 15.2436 0 
114.592 16.825 0 
113.881 15.9757 0 
112.757 16.6518 0 
114.092 15.3073 0 
113.287 15.4195 0 
112.912 16.7058 0 
114.045 15.9116 0 
114.468 15.9839 0 
113.748 15.3421 0 
113.905 16.4939 0 
112.691 16.6547 0 
113.743 16.2159 0 
113.167 17.0407 0 
113.592 14.8658 0 
113.158 15.7621 0 
113.999 15.5714 0 
112.379 15.7969 0 
112.49 16.5938 0 
114.221 16.2121 0 
113.816 15.0547 0 
113.617 16.1414 0 
113.732 16.4401 0 
114.054 15.4794 0 
113.444 15.2274 0 
113.962 15.9707 0 
112.596 16.603 0 
113.701 16.4111 0 
113.584 15.6491 0 
114.762 15.8092 0 
113.964 15.8353 0 
112.819 15.9759 0 
113.746 15.9612 0 
112.783 16.493 0 
114.567 16.4079 0 
112.87 16.4728 0 
114.418 16.6029 0 
112.748 16.2223 0 
113.635 16.7518 0 
113.592 15.8947 0 
113.31 16.9703 0 
112.344 14.9007 0 
114.74 17.3995 0 
112.66 16.4423 0 
112.705 15.8742 0 
113.198 16.4603 0 
112.816 16.7069 0 
112.264 15.544 0 
113.431 15.2208 0 
114.354 16.0736 0 
114.495 16.5234 0 
113.897 16.4382 0 
114.474 16.7756 0 
113.792 16.0171 0 
112.624 16.797 0 
114.064 15.7658 0 
114.53 16.3333 0 
113.714 14.9888 0 
113.72 16.2031 0 
113.825 15.0566 0 
112.602 16.4525 0 
114.569 16.4707 0 
113.997 16.1119 0 
114.052 16.2775 0 
112.784 15.652 0 
114.263 16.8748 0 
114.631 16.8979 0 
113.932 15.746 0 
112.452 15.6096 0 
113.269 15.8469 0 
113.219 17.1901 0 
113.668 15.9633 0 
112.318 15.6708 0 
113.656 16.2836 0 
114.416 15.6513 0 
112.621 15.865 0 
114.3 15.5169 0 
112.435 15.3971 0 
114.246 15.4441 0 
114.335 16.4217 0 
114.388 15.6335 0 
112.823 16.7071 0 
113.193 16.6591 0 
112.366 15.7631 0 
114.498 16.3095 0 
112.834 16.5367 0 
113.657 14.8807 0 
114.12 15.2085 0 
113.718 14.9743 0 
113.84 15.0832 0 
113.566 16.5962 0 
112.448 15.4453 0 
113.937 14.876 0 
113.646 16.2261 0 
114.263 16.5666 0 
113.56 15.9747 0 
114.587 16.3004 0 
113.633 16.7093 0 
113.409 16.4059 0 
113.846 14.9845 0 
113.622 16.4694 0 
112.738 16.3108 0 
114.332 16.5196 0 
113.968 15.9056 0 
113.885 16.082 0 
113.767 16.0943 0 
113.648 14.8895 0 
113.815 16.0814 0 
114.3 16.1228 0 
113.953 15.9175 0 
114.585 16.7015 0 
112.685 15.9039 0 
112.881 17.4578 0 
113.226 17.2073 0 
113.728 16.8314 0 
112.672 14.8723 0 
113.869 15.8312 0 
114.202 16.6761 0 
113.636 16.5541 0 
113.53 16.6642 0 
113.8 16.6625 0 
113.777 14.8455 0 
114.146 15.9941 0 
112.956 16.4088 0 
114.752 16.2892 0 
113.794 16.6794 0 
113.668 16.9717 0 
112.36 15.6715 0 
114.048 15.3142 0 
112.838 15.648 0 
112.367 15.4626 0 
114.482 16.3423 0 
113.698 16.2658 0 
113.594 16.4974 0 
112.391 16.51 0 
114.243 16.5198 0 
114.211 16.0292 0 
113.008 16.0937 0 
113.519 16.822 0 
112.572 16.5267 0 
113.685 16.6058 0 
113.593 16.4765 0 
114.377 16.4446 0 
113.355 15.5368 0 
113.479 17.3062 0 
113.489 16.7319 0 
114.585 15.7166 0 
113.902 15.976 0 
113.94 16.3525 0 
113.99 15.6815 0 
113.106 17.0471 0 
112.652 16.5637 0 
113.001 15.6694 0 
112.818 16.561 0 
114.354 15.9364 0 
113.545 15.9644 0 
112.855 15.9243 0 
113.221 17.2536 0 
114.758 16.2258 0 
114.564 16.6668 0 
113.824 15.4967 0 
113.682 16.3851 0 
113.567 16.3089 0 
114.126 15.9592 0 
114.709 15.7653 0 
112.455 15.4534 0 
112.652 16.4712 0 
113.569 15.7413 0 
114.098 16.5315 0 
112.542 16.5297 0 
112.538 14.9608 0 
113.992 15.8638 0 
112.851 16.7674 0 
113.554 16.1239 0 
113.544 15.0877 0 
114.397 16.9926 0 
112.817 16.6872 0 
114.139 15.898 0 
113.916 15.8527 0 
112.742 15.993 0 
112.978 16.3411 0 
113.406 16.4285 0 
113.749 16.3481 0 
113.839 15.5285 0 
114.485 16.4918 0 
113.067 16.6079 0 
112.858 15.6133 0 
114.101 15.9768 0 
114.664 16.7072 0 
112.674 16.7304 0 
112.575 16.5433 0 
113.862 15.4727 0 
112.743 15.1748 0 
113.323 17.0027 0 
112.866 16.5791 0 
112.861 15.5811 0 
112.717 16.1566 0 
113.181 15.9352 0 
113.344 15.7636 0 
114.579 16.2914 0 
113.584 16.3527 0 
112.909 15.2993 0 
113.884 16.7512 0 
112.286 15.4437 0 
113.238 16.892 0 
113.563 16.4537 0 
114.193 15.7857 0 
113.851 16.0177 0 
113.012 16.0693 0 
112.753 16.7246 0 
113.587 16.5035 0 
113.748 16.6756 0 
114.427 15.9023 0 
114.093 15.386 0 
114.088 16.247 0 
113.087 16.436 0 
113.515 15.872 0 
114.221 16.6811 0 
114.642 15.9358 0 
112.778 16.12 0 
112.295 15.617 0 
114.094 16.4332 0 
112.911 16.3343 0 
113.365 16.8807 0 
113.224 16.5574 0 
114.447 16.7082 0 
113.581 16.4989 0 
113.919 16.1622 0 
113.755 16.0769 0 
113.516 15.1057 0 
114.452 16.7502 0 
112.977 16.2465 0 
113.8 16.6011 0 
114.704 16.3179 0 
113.764 16.2965 0 
113.36 17.0486 0 
113.761 15.5132 0 
114.42 16.9191 0 
112.956 16.6359 0 
113.925 15.5166 0 
114.014 16.0047 0 
113.567 16.5358 0 
113.845 15.5395 0 
113.304 16.8485 0 
113.421 19.425 0 
113.444 19.0385 0 
113.657 19.1853 0 
112.948 18.2439 0 
112.776 20.182 0 
113.158 19.1247 0 
113.311 19.3944 0 
[...]
      <PointData Vectors="vector">
        <DataArray type="Float32" Name="Velocity" NumberOfComponents="3" format="ascii">

-59.9338 -79.1809 0 
-40.6759 -79.7855 0 
-50.7088 -74.7241 0 
-80.3309 -63.3281 0 
-69.8674 -69.6048 0 
-65.2738 -36.856 0 
-54.3265 -74.6034 0 
-70.1381 -71.1629 0 
-70.1593 -70.3953 0 
-63.464 -73.5721 0 
-50.4363 -74.6793 0 
-57.0207 -34.3971 0 
-65.3882 -65.3669 0 
-66.7938 -65.4794 0 
-61.3751 -64.7645 0 
-61.1564 -77.9244 0 
-61.8808 -73.8477 0 
-58.8752 -71.2348 0 
-79.4385 -64.1497 0 
-65.929 -36.485 0 
-49.6657 -72.488 0 
-89.55 -27.6605 0 
-47.0945 -89.7124 0 
-74.7398 -51.7869 0 
-63.056 -55.0417 0 
-69.7384 -8.11286 0 
-73.2205 -56.3196 0 
-69.7986 -13.5917 0 
-69.7482 -8.09443 0 
-55.4504 -53.4495 0 
-74.5261 -9.59301 0 
-70.0393 -34.6621 0 
-81.1481 -31.8765 0 
-48.635 8.70405 0 
-88.2181 5.8485 0 
-89.1426 -39.5957 0 
-68.1746 -39.0914 0 
-62.3874 -14.8353 0 
-47.4892 -5.87451 0 
-87.7012 -42.9449 0 
-59.2048 -4.55391 0 
-70.9642 -24.4688 0 
-88.5076 -33.2779 0 
-87.6127 -37.7903 0 
-80.6213 -44.5173 0 
-87.599 -35.7902 0 
-81.9101 -35.826 0 
-89.2732 23.899 0 
-62.0018 -4.17001 0 
-87.7317 -38.3612 0 
-80.8012 -44.6267 0 
-41.5806 -11.3888 0 
-88.7237 38.6201 0 
-82.7621 -35.4604 0 
-50.6381 2.86722 0 
-88.6877 27.8401 0 
-87.0668 -45.6565 0 
-62.5566 -12.4891 0 
-87.7375 -38.008 0 
-51.0639 -24.4785 0 
-59.6582 -11.649 0 
-86.766 -0.336708 0 
-88.3641 -25.7279 0 
-73.4067 -25.2783 0 
-82.2731 71.7143 0 
-82.0906 82.4759 0 
-82.1693 52.6823 0 
-87.1823 38.4102 0 
-77.4384 77.4276 0 
-89.0167 23.9984 0 
-89.1111 24.5187 0 
-77.1294 77.5136 0 
-78.3119 47.4108 0 
-60.6259 41.3363 0 
-86.9857 33.9152 0 
-77.1365 77.2927 0 
-83.9371 56.9296 0 
-83.4926 62.8317 0 
-76.8552 24.1349 0 
-84.777 15.54 0 
-77.7535 47.8265 0 
-60.008 44.8506 0 
-61.957 66.1951 0 
-86.3038 27.0038 0 
-79.9395 65.2259 0 
-79.9993 73.7366 0 
-72.4013 84.6052 0 
-79.6297 79.997 0 
-86.5052 26.8524 0 
-78.794 78.6058 0 
-79.4084 84.9975 0 
-79.1251 84.9958 0 
-80.5979 80.4493 0 
-48.3587 31.8957 0 
-80.3084 80.3217 0 
-85.9714 70.24 0 
-72.2864 79.9103 0 
-84.5673 79.9746 0 
-36.9328 16.4745 0 
-69.2939 69.7015 0 
-79.1102 -69.827 0 
-69.902 -69.7894 0 
-73.324 -71.2622 0 
-41.1837 -61.0148 0 
-41.0447 -62.7027 0 
-47.5576 -68.1487 0 
-60.7889 -70.453 0 
-64.7089 -64.728 0 
-50.3886 -73.3894 0 
-45.6736 -74.5779 0 
-44.8691 -74.3223 0 
-74.1754 -79.2273 0 
-41.528 -67.7818 0 
-55.4392 -80.8066 0 
-41.2734 -62.7189 0 
-48.1742 -65.6547 0 
-47.233 -56.8073 0 
-66.8584 -80.4086 0 
-58.8427 -68.232 0 
-70.3703 -79.8229 0 
-82.0449 -69.798 0 
-78.9267 -67.5281 0 
-55.9209 -73.7404 0 
-78.3516 -79.4757 0 
-54.4999 -77.3067 0 
-66.2567 -64.0431 0 
-67.6996 -79.4174 0 
-64.4019 -79.5776 0 
-61.7807 -72.2844 0 
-52.0484 -89.2258 0 
-38.6136 -59.2308 0 
-69.4548 -46.7557 0 
-78.0915 -23.2216 0 
-70.2081 -40.6833 0 
-79.5992 -35.4319 0 
-58.2502 -31.8128 0 
-67.0381 -20.744 0 
-64.3031 -39.9302 0 
-72.7643 -9.99842 0 
-55.5098 -46.614 0 
-82.4343 -52.7829 0 
-56.6049 -62.8806 0 
-77.9785 -59.746 0 
-78.1397 -46.1384 0 
-58.5359 -62.0022 0 
-53.3934 -65.1804 0 
-77.2633 -31.9239 0 
-63.1385 -82.6647 0 
-69.883 -10.256 0 
-54.8005 -58.2452 0 
-79.631 -15.6889 0 
-86.4991 -52.0575 0 
-35.6312 -52.899 0 
-67.163 -55.072 0 
-65.2718 -23.5822 0 
-63.2274 -10.4352 0 
-66.1849 -11.2951 0 
-52.3627 -89.219 0 
-88.4821 -49.9093 0 
-50.4951 -53.2641 0 
-83.9216 -58.4991 0 
-62.6262 -15.8754 0 
-73.1873 -55.8036 0 
-56.6415 -47.2981 0 
-42.1128 -66.263 0 
-75.8917 -41.7181 0 
-34.2691 -15.2021 0 
-77.3289 -28.2522 0 
-59.7214 -57.3389 0 
-79.9703 -60.9847 0 
-79.7911 -56.4232 0 
-81.5652 -13.5941 0 
-80.46 -25.5665 0 
-32.5344 -31.1125 0 
-47.5226 -64.6239 0 
-55.8536 -58.1072 0 
-44.5009 -62.7765 0 
-84.3961 -68.8791 0 
-69.2384 -32.763 0 
-65.5927 -57.1274 0 
-66.5976 -40.236 0 
-65.3974 -54.4633 0 
-61.6914 -55.8707 0 
-51.7495 -65.6485 0 
-69.7313 -30.4613 0 
-47.3715 -74.4813 0 
-63.4023 -49.1168 0 
-70.2703 -12.6682 0 
-80.0532 -26.7428 0 
-71.7062 -73.4319 0 
-73.015 -25.1098 0 
-79.4966 -27.8702 0 
-61.056 -66.7268 0 
-70.8904 -41.2134 0 
-77.2154 -77.0015 0 
-44.1439 -70.5814 0 
-35.7003 -31.5482 0 
-59.9234 -33.1478 0 
-87.5043 -48.1412 0 
-62.9434 -49.2226 0 
-78.1741 -24.943 0 
-57.9304 -52.1066 0 
-55.8818 -48.1451 0 
-88.9365 -41.1906 0 
-64.3713 -75.9063 0 
-55.106 -49.0288 0 
-69.3762 -21.3442 0 
-41.7184 -32.5162 0 
-45.9111 -53.2452 0 
-58.4359 -56.1989 0 
-65.3228 -22.8671 0 
-78.9541 -49.388 0 
-63.799 -56.3416 0 
-52.6151 -89.1669 0 
-79.5148 -54.4813 0 
-69.9393 -22.3654 0 
-69.2299 -87.621 0 
-52.5348 -64.8121 0 
-26.0944 -50.9605 0 
-89.4221 -59.3073 0 
-79.9098 -7.29397 0 
-79.7314 -9.99388 0 
-81.6086 -51.3505 0 
-50.7426 -61.6755 0 
-53.0958 -53.854 0 
-74.3341 -44.1955 0 
-85.655 -75.1014 0 
-70.1432 -18.3199 0 
-80.4677 -32.6608 0 
-54.8735 -46.4073 0 
-55.0071 -60.7183 0 
-63.3932 -20.1613 0 
-70.691 -72.9615 0 
-79.4367 -23.8822 0 
-79.7384 -9.99399 0 
-56.1126 -54.8504 0 
-66.8324 -55.6081 0 
-68.2273 -38.1808 0 
-70.4386 -56.8131 0 
-63.6945 -72.1857 0 
-60.2689 -25.9414 0 
-74.7262 -52.9012 0 
-61.115 -55.4742 0 
-79.7336 -9.99314 0 
-81.8216 -24.2394 0 
-79.7722 -57.8924 0 
-80.3537 -54.6149 0 
-44.9801 -65.9167 0 
-24.1651 -36.1714 0 
-71.8692 -68.4671 0 
-64.2001 -83.6428 0 
-66.7493 -39.9158 0 
-48.0332 -69.9606 0 
-63.1815 -25.2689 0 
-80.8429 -53.4247 0 
-17.6304 -43.0849 0 
-51.3218 -53.615 0 
-68.5638 -83.5085 0 
-45.2193 -71.5285 0 
-78.7413 -3.80924 0 
-68.5508 -45.873 0 
-56.6123 -62.6225 0 
-68.4851 -57.4591 0 
-71.6133 -43.6804 0 
-67.1601 -49.6235 0 
-87.4355 -30.3551 0 
-58.9581 7.57783 0 
-62.8582 -9.41685 0 
-79.5134 37.689 0 
-56.0394 -48.4072 0 
-67.8411 -7.7798 0 
-60.7442 -3.13382 0 
-43.9884 20.6055 0 
-79.6992 19.8248 0 
-45.4344 -4.97021 0 
-64.5261 11.0725 0 
-54.0738 -20.0257 0 
-19.8739 9.16341 0 
-48.5645 22.5195 0 
-61.5146 -5.84275 0 
-46.6898 20.8448 0 
-41.4803 -26.491 0 
-87.605 -6.85007 0 
-70.5152 -14.7529 0 
-64.3162 10.0682 0 
-88.9128 -4.55245 0 
-36.0587 6.57548 0 
-58.7217 -47.7356 0 
-77.2816 -5.63813 0 
-57.3373 13.7315 0 
-60.9555 -34.538 0 
-57.6367 -0.18156 0 
-86.6271 -43.3476 0 
-42.611 -2.15277 0 
-64.8733 -15.6461 0 
-67.9806 -39.7583 0 
-58.8807 4.81737 0 
-49.5448 -16.0824 0 
-26.2402 -9.595 0 
-53.5878 -19.9835 0 
-73.2958 7.38921 0 
-50.2922 -4.90173 0 
-60.7879 16.4905 0 
-69.8048 -8.97238 0 
-61.1843 22.5077 0 
-59.1275 -0.355351 0 
-20.8155 -10.1622 0 
-53.2324 -14.589 0 
-53.7332 13.2414 0 
-70.1381 -7.51751 0 
-80.5963 -4.33815 0 
-69.9509 -38.1355 0 
-63.321 -18.9289 0 
-59.0631 -11.8064 0 
-63.5806 2.25686 0 
-78.7921 20.0583 0 
-80.8892 -27.7593 0 
-58.4883 7.49554 0 
-75.2756 13.0129 0 
-75.0928 9.46972 0 
-84.0072 -16.7442 0 
-63.4479 -28.3946 0 
-43.98 -3.70438 0 
-41.4492 -30.6808 0 
-33.1332 -4.77673 0 
-82.6838 -15.1387 0 
-89.4488 -36.8861 0 
-68.9116 21.6042 0 
-74.9106 -14.7429 0 
-22.3377 -9.17437 0 
-76.3966 -25.2402 0 
-79.8238 -55.8567 0 
-28.5167 -14.2332 0 
-46.4271 -6.64299 0 
-79.6532 5.86104 0 
-70.3648 -35.7011 0 
-58.5599 11.6443 0 
-36.4754 -8.18528 0 
-58.0604 -58.9927 0 
-61.1764 -3.64743 0 
-83.4416 -56.1514 0 
-51.9685 6.68378 0 
-63.0865 -21.7634 0 
-50.7526 32.8436 0 
-88.6279 3.67508 0 
-63.7847 -46.3612 0 
-75.6255 4.79889 0 
-70.9134 -12.1043 0 
-78.1755 -26.6402 0 
-44.0329 -2.98999 0 
-76.6169 -64.0697 0 
-57.2371 -0.537992 0 
-45.5979 0.201776 0 
-68.064 7.42026 0 
-65.4535 -8.37349 0 
-47.1716 10.2687 0 
-77.7675 -15.9424 0 
-76.7248 -22.1828 0 
-81.0573 9.10995 0 
-29.484 -14.8531 0 
-42.6688 16.158 0 
-33.3377 3.43984 0 
-80.2028 -12.5268 0 
-34.054 -10.8625 0 
-38.3698 24.8988 0 
-57.2613 -7.9352 0 
-61.2631 -7.98404 0 
-64.7903 -1.26857 0 
-50.4245 2.44796 0 
-76.4838 -19.673 0 
-79.3531 -28.0913 0 
-59.9769 -4.69727 0 
-65.401 -23.7316 0 
-20.5275 -2.35875 0 
-89.3182 -40.2113 0 
-71.0359 -0.473426 0 
-69.5914 -11.7692 0 
-54.8577 -38.8001 0 
-78.0717 17.9621 0 
-79.1291 4.14422 0 
-39.8831 7.20581 0 
-53.5653 -63.4396 0 
-41.7922 5.81778 0 
-83.1677 -8.15134 0 
-59.4564 -49.0395 0 
-34.9339 -18.1073 0 
-48.6539 21.8551 0 
-77.614 -2.27834 0 
-76.5948 5.33172 0 
-36.3234 -24.9825 0 
-55.3009 14.2004 0 
-59.9233 22.6705 0 
-80.0035 -13.1074 0 
-79.4457 34.2927 0 
-78.7011 15.5893 0 
-89.1901 1.15801 0 
-55.0246 1.48747 0 
-66.7521 -8.30604 0 
-76.4262 -20.0701 0 
-76.8732 5.83297 0 
-83.6 0.960896 0 
-81.506 -29.3624 0 
-72.3831 -18.7076 0 
-59.9895 -6.22506 0 
-85.4855 4.14878 0 
-69.7891 -17.9399 0 
-20.4698 -1.98113 0 
-63.9866 -16.6027 0 
-42.9164 -1.04723 0 
-72.7441 -17.9745 0 
-79.0026 -29.3327 0 
-61.9711 -44.5521 0 
-74.1161 9.36896 0 
-80.4057 -6.69108 0 
-83.1161 -7.75541 0 
-52.3526 -0.546888 0 
-69.5668 17.8828 0 
-82.2463 4.59559 0 
-60.5893 18.269 0 
-64.337 1.73955 0 
-71.6055 3.82188 0 
-65.8416 9.78702 0 
-36.002 -11.0003 0 
-84.1111 -9.27796 0 
-79.3507 25.1043 0 
-74.3945 -12.6026 0 
-80.0957 -3.1982 0 
-76.9686 8.35818 0 
-78.5715 2.02867 0 
-76.8014 -8.10182 0 
-66.2409 6.05658 0 
-70.9854 -18.4365 0 
-40.3014 8.81213 0 
-35.4701 -6.77458 0 
-82.9556 -25.5342 0 
-35.9194 0.964149 0 
-55.1534 1.8778 0 
-68.5627 4.91742 0 
-71.3139 20.32 0 
-54.3818 -14.6689 0 
-62.5447 14.0372 0 
-66.9517 19.3076 0 
-61.9423 12.3278 0 
-62.8821 10.3104 0 
-51.1859 -42.1758 0 
-69.5934 -9.88208 0 
-75.3061 -26.9424 0 
-32.6002 17.1503 0 
-71.4593 -52.5447 0 
-51.3349 -41.6917 0 
-41.8628 -0.549207 0 
-75.3225 -29.5012 0 
-39.3127 -30.0969 0 
-54.2105 -17.4687 0 
-82.3897 -7.90432 0 
-57.3661 -9.07679 0 
-69.4902 18.8428 0 
-82.1036 -13.3056 0 
-42.6344 -27.3838 0 
-68.0323 -4.48874 0 
-86.2195 -30.6402 0 
-64.3439 11.9892 0 
-36.3993 -12.887 0 
-63.8266 -4.85891 0 
-63.5875 8.19115 0 
-57.8453 5.40497 0 
-75.8857 -53.1959 0 
-58.4667 -5.04917 0 
-64.4635 9.10927 0 
-64.154 -15.332 0 
-73.5863 -14.922 0 
-79.8412 9.90184 0 
-55.0261 -56.2409 0 
-63.8118 4.9054 0 
-69.3027 -17.6182 0 
-84.154 -32.2449 0 
-28.7942 -7.63726 0 
-46.1604 -6.53192 0 
-39.4677 34.422 0 
-87.6191 6.03153 0 
-72.0545 -24.9618 0 
-55.6314 3.07604 0 
-28.124 15.5656 0 
-79.5165 20.2304 0 
-66.1099 -48.2843 0 
-70.0692 21.6838 0 
-65.5701 9.21024 0 
-58.8429 -4.79719 0 
-64.7046 1.55812 0 
-49.6676 7.60904 0 
-48.3491 -6.38504 0 
-88.9504 0.0444953 0 
-60.1528 -39.626 0 
-35.3001 -8.69046 0 
-68.2377 -3.60313 0 
-20.0484 7.43108 0 
-74.0898 0.37199 0 
-66.8895 -45.3743 0 
-55.0229 27.9754 0 
-54.9336 3.25706 0 
-34.529 12.4012 0 
-51.558 -59.8982 0 
-73.147 -14.1736 0 
-81.5938 -22.3728 0 
-23.7581 -5.72613 0 
-71.8381 3.93639 0 
-71.7507 2.55662 0 
-69.0183 -23.4665 0 
-60.0383 -7.0309 0 
-83.0613 -14.705 0 
-35.3557 -27.6741 0 
-70.0421 -12.5019 0 
-66.7458 -2.00664 0 
-67.1661 -10.7748 0 
-73.5308 -17.0068 0 
-64.3512 -29.4326 0 
-39.7101 -43.7402 0 
-65.279 -2.75442 0 
-32.025 -18.326 0 
-37.8306 -29.6092 0 
-39.8004 -11.6684 0 
-66.8016 -22.1768 0 
-79.193 -31.7262 0 
-38.4165 13.4163 0 
-74.4955 7.71353 0 
-86.4364 -38.8753 0 
-63.2583 16.6648 0 
-83.6413 -45.2511 0 
-63.4912 4.4649 0 
-67.958 -10.4819 0 
-56.5459 -58.0417 0 
-86.0698 -31.1751 0 
-68.84 -12.1158 0 
-61.8724 -7.49484 0 
-66.2898 10.2148 0 
-73.2103 -7.45748 0 
-44.128 6.47941 0 
-67.0204 -5.09627 0 
-75.5443 -20.0308 0 
-66.206 3.4189 0 
-65.6952 -18.495 0 
-78.6754 2.20303 0 
-57.1745 -31.7884 0 
-59.428 14.3544 0 
-79.4802 30.019 0 
-29.5927 -9.9694 0 
-57.5973 -41.7516 0 
-84.6097 -17.2289 0 
-78.4666 -43.3781 0 
-76.814 -8.26504 0 
-79.3294 -1.34208 0 
-66.5493 10.2712 0 
-80.0639 0.0151443 0 
-84.0489 -14.6476 0 
-81.1876 -44.214 0 
-53.0819 3.78419 0 
-88.7905 -23.9861 0 
-50.1697 -0.377205 0 
-28.9417 15.3193 0 
-70.7223 0.413192 0 
-63.5381 0.659987 0 
-82.8725 -20.2362 0 
-84.0293 18.2366 0 
-83.0196 -12.3693 0 
-56.7823 -57.3672 0 
-55.4037 -48.776 0 
-73.9196 5.20935 0 
-88.9214 -21.0458 0 
-67.1815 -2.57689 0 
-52.948 -43.3265 0 
-14.3742 23.9995 0 
-29.2832 -6.22453 0 
-41.7326 6.02628 0 
-27.1182 26.9025 0 
-19.0509 46.8319 0 
-29.4869 -4.75456 0 
-27.0605 74.7044 0 
-69.0184 38.68 0 
-80.3763 2.76818 0 
-41.7828 22.3415 0 
-20.2744 69.8999 0 
-43.8185 22.2815 0 
-58.8369 1.52861 0 
-27.1334 40.0807 0 
-69.5078 21.5122 0 
-19.9576 -3.76243 0 
-27.3012 41.1374 0 
-71.6143 -12.1895 0 
-20.0756 43.2668 0 
-71.8579 11.6461 0 
-67.7888 7.3983 0 
-59.8743 25.888 0 
-71.3973 4.51907 0 
-70.0482 13.8433 0 
-72.1325 12.6259 0 
-28.9071 -4.14282 0 
-72.8847 12.4142 0 
-66.0057 32.2821 0 
-33.7014 41.3495 0 
-81.9579 0.785027 0 
-70.9069 2.4967 0 
-68.9477 9.84335 0 
-79.9415 10.553 0 
-31.7578 -0.356898 0 
-71.0678 10.3129 0 
-79.661 9.74101 0 
-58.4249 -9.4485 0 
-35.7907 8.4127 0 
-34.8181 39.5078 0 
-61.9458 7.99938 0 
-35.0658 8.61763 0 
-39.5837 -9.58968 0 
-59.0405 37.1904 0 
-52.9388 -3.96967 0 
-42.1478 23.0059 0 
-27.1587 78.1224 0 
-63.8959 -0.20807 0 
-73.9831 -27.7499 0 
-14.2735 23.9531 0 
-67.9917 32.9123 0 
-34.7304 46.5596 0 
-58.1594 6.84646 0 
-41.0798 28.5688 0 
-71.2899 8.51583 0 
-58.7976 42.1784 0 
-51.2248 7.56744 0 
-61.7533 0.466 0 
-58.0554 35.1195 0 
-35.3705 -23.2102 0 
-66.6278 65.6915 0 
-68.9329 -3.71354 0 
-54.6298 66.3219 0 
-34.1812 74.9861 0 
-34.312 75.0004 0 
-44.1258 57.2822 0 
-66.7375 59.9384 0 
-67.7558 61.561 0 
-64.6601 59.6886 0 
-60.7918 63.3987 0 
-33.8986 79.6075 0 
-86.0892 54.6713 0 
-61.7655 52.9388 0 
-60.7653 66.7137 0 
-60.9404 62.6741 0 
-86.8653 55.5289 0 
-49.4712 57.1796 0 
-34.24 73.8032 0 
-34.2863 74.9705 0 
-64.0966 59.297 0 
-82.0204 69.5407 0 
-43.7608 65.6028 0 
-86.8308 60.8028 0 
-87.2888 62.465 0 
-19.187 69.9459 0 
-14.2089 71.1684 0 
-67.6255 62.3122 0 
-86.8329 60.8441 0 
-60.1083 70.9444 0 
-86.9266 55.3474 0 
-87.2596 57.4155 0 
-78.3632 61.5381 0 
-67.1261 68.0971 0 
-14.6713 70.3396 0 
-46.6764 68.4626 0 
-61.1448 66.0916 0 
-61.5698 65.9542 0 
-61.8094 67.6392 0 
-14.4068 73.2507 0 
-62.5375 69.9568 0 
-60.4801 69.595 0 
-67.0469 69.8843 0 
-57.9273 59.7945 0 
-67.1924 68.1347 0 
-69.6891 70.746 0 
-46.8218 61.5789 0 
-86.7692 55.1524 0 
-60.974 62.612 0 
-5.22159 11.9765 0 
-57.6252 57.4581 0 
-61.8096 63.1437 0 
-44.2166 58.8053 0 
-61.1459 61.4177 0 
-87.1947 62.4189 0 
-86.7525 59.3967 0 
-74.5233 -3.73316 0 
-64.0377 60.3631 0 
-14.529 78.0958 0 
-86.9881 56.4677 0 
-61.945 55.4258 0 
-86.6305 28.9447 0 
-61.043 62.6708 0 
-58.2259 15.4331 0 
-36.5492 71.8927 0 
-40.0719 65.6672 0 
-84.532 84.8297 0 
-67.2553 84.6883 0 
-73.9866 84.3884 0 
-78.7666 66.4626 0 
-68.9299 54.3264 0 
-59.694 69.5616 0 
-51.8726 -79.7394 0 
-1.16299 -85.5784 0 
-53.5857 -79.7336 0 
-7.61158 -83.0057 0 
-39.1888 -70.5531 0 
-37.8615 -69.1098 0 
-60.3245 -89.0015 0 
-68.8136 -89.1175 0 
5.81476 -77.2614 0 
-7.46333 -83.3752 0 
-79.7527 -61.042 0 
0.873055 -89.0946 0 
-46.7598 -69.7173 0 
-23.5115 -78.4629 0 
-29.9726 -68.3839 0 
-63.7917 -52.8632 0 
-75.1181 -51.8256 0 
-61.7141 -89.0923 0 
-62.0234 -71.5711 0 
-48.7567 -73.5136 0 
-42.5357 -69.6861 0 
-68.7787 -69.5566 0 
-7.27077 -89.361 0 
-65.3392 -89.391 0 
-65.9251 -74.6046 0 
8.12135 -88.8798 0 
-15.7398 -89.3191 0 
-66.9412 -59.8107 0 
-55.8285 -55.2691 0 
-7.62723 -82.1348 0 
-36.0621 -79.7678 0 
-39.7225 -69.8026 0 
-6.50384 -57.661 0 
-71.8914 -89.008 0 
-29.8881 -60.6835 0 
-20.7145 -70.2088 0 
-42.4115 -62.022 0 
-46.3655 -19.35 0 
-20.91 -66.856 0 
-8.36298 -27.4118 0 
-69.961 -63.7117 0 
-64.2355 -40.8098 0 
-7.99347 -43.1348 0 
-65.5686 -51.6086 0 
-49.8595 -36.4527 0 
-59.4361 -41.9943 0 
-53.526 -85.67 0 
-57.9228 -42.3936 0 
-59.9019 -51.7312 0 
-65.2015 -51.1065 0 
-68.0207 -89.0696 0 
-66.1102 -35.2146 0 
-72.0804 -53.397 0 
-64.9331 -55.9672 0 
-64.8156 -59.8941 0 
-53.6697 -55.9553 0 
-65.2156 -40.8336 0 
-37.4225 -20.6679 0 
-46.8868 -56.8174 0 
-40.1961 -85.533 0 
-59.477 -66.0498 0 
-21.6792 -83.5107 0 
-29.9439 -75.9438 0 
-68.7686 -40.162 0 
-65.2471 -59.7666 0 
-27.2791 -74.1975 0 
-69.6143 -56.3374 0 
-44.8568 -57.7703 0 
-34.1778 -66.2506 0 
-46.5599 -75.2088 0 
-61.7209 -32.8487 0 
-7.46312 -59.4165 0 
-37.0799 -37.4231 0 
-71.393 -68.0232 0 
-69.9928 -62.89 0 
-41.5478 -42.0652 0 
-59.7248 -45.0225 0 
-52.3604 -79.6117 0 
-21.8325 -74.2037 0 
-20.536 -51.5776 0 
-41.0315 -44.2558 0 
-56.4797 -60.5568 0 
-11.3266 -84.4138 0 
-32.9517 -84.0736 0 
-55.545 -49.0182 0 
-30.7276 -56.0488 0 
-60.2082 -78.536 0 
-70.2496 -68.1118 0 
-68.8561 -64.87 0 
-54.1379 -77.3126 0 
-63.353 -43.2095 0 
-32.9957 -60.7096 0 
-32.0482 -84.4938 0 
-63.1525 -46.3029 0 
-48.6791 -79.3808 0 
-59.6326 -47.3623 0 
-18.2755 -15.1996 0 
-46.5802 -7.21698 0 
-32.3646 -53.5151 0 
-66.8984 -40.2669 0 
-69.8571 -64.3198 0 
-52.7314 -29.8595 0 
-56.3792 -47.4858 0 
-54.7042 -65.3396 0 
-44.9963 -53.5695 0 
-59.953 -44.1545 0 
-60.3941 -45.2419 0 
-42.3091 -72.6014 0 
-59.7979 -31.8993 0 
-54.6721 -40.3942 0 
-11.7202 -4.61247 0 
-57.3441 -10.463 0 
-63.3438 -4.92024 0 
-55.0788 -76.003 0 
-75.322 -64.9961 0 
-50.5642 -30.2738 0 
-74.0497 -39.5855 0 
-58.5239 -39.6557 0 
-31.1682 -49.0106 0 
-30.8068 -59.1114 0 
-44.4286 -41.7318 0 
-59.7151 -42.2946 0 
-55.0833 -41.4455 0 
-37.9443 -81.6835 0 
-62.6579 -44.608 0 
-64.9157 -69.88 0 
-60.4657 -62.9091 0 
-60.1803 -10.1765 0 
-48.1491 -58.247 0 
-56.7776 -65.0657 0 
-60.2295 -27.8399 0 
-62.5758 -33.2962 0 
-47.4437 -41.9367 0 
-77.9237 -31.1723 0 
-51.9937 -85.3829 0 
-14.77 -32.1238 0 
-59.9306 -42.5195 0 
-49.2995 -50.6157 0 
-45.3838 -47.9376 0 
-50.0123 -81.5662 0 
-61.2769 -58.3654 0 
-65.8835 -89.075 0 
-53.6203 -76.926 0 
-57.6708 -65.1215 0 
-65.2014 -36.9612 0 
-56.2332 -48.1846 0 
-31.7806 -72.205 0 
-32.8363 -61.1654 0 
-58.4663 -10.2563 0 
-70.8947 -65.4718 0 
-59.9835 -59.8489 0 
-77.1537 -37.8246 0 
-68.6525 -64.8288 0 
-25.3594 -44.1147 0 
-61.6834 -38.063 0 
-74.6601 -24.3103 0 
-46.6141 -45.5408 0 
-59.9979 -34.9681 0 
-59.0081 -42.054 0 
-69.6902 -55.3137 0 
-64.2181 -60.0028 0 
-38.0514 -14.9416 0 
-52.4885 -48.2649 0 
-39.6952 -46.9923 0 
-33.6771 -83.9283 0 
-69.739 -62.9801 0 
-15.7534 -67.9919 0 
-45.3031 -47.3813 0 
-48.8053 -44.3027 0 
1.04825 -48.7002 0 
-45.75 -53.6561 0 
-74.6269 -35.4567 0 
-52.1675 -29.662 0 
-60.0042 -41.6405 0 
-26.517 -74.1119 0 
-49.6051 -54.3583 0 
-53.6284 -9.64882 0 
-43.9927 -42.8567 0 
-67.8828 -48.941 0 
-57.9452 -65.3132 0 
-69.7834 -40.6016 0 
-69.3454 -64.6865 0 
-40.2088 -45.9481 0 
-60.2737 -33.9847 0 
-69.1922 -59.3122 0 
-30.7863 -70.7576 0 
-58.8826 -84.5039 0 
-82.8848 -63.2926 0 
-62.5857 -48.8089 0 
-57.585 -54.2234 0 
-69.7197 -39.0388 0 
-45.8748 -45.6362 0 
-61.0831 -31.9003 0 
-53.855 -40.2928 0 
-65.6396 -43.5651 0 
-8.95407 -28.9448 0 
-65.0506 -59.6982 0 
-43.8518 -44.9012 0 
-49.2992 -36.8537 0 
-62.8474 -42.3517 0 
-35.1172 -43.269 0 
-73.8883 -36.7926 0 
-56.1786 -38.133 0 
-69.8101 -32.6975 0 
-46.7542 -67.5222 0 
-59.9792 -59.8025 0 
-60.1063 -48.9246 0 
-52.3914 -60.9541 0 
-30.729 -64.8845 0 
-58.8065 -60.9373 0 
-59.0837 -57.0664 0 
-23.0012 -47.4004 0 
-30.3562 -76.6003 0 
-45.6243 -27.2982 0 
-50.4895 -52.9729 0 
-13.4688 -39.5787 0 
-72.3893 -50.7993 0 
-33.4646 -84.0805 0 
-49.755 -46.3215 0 
-1.54514 -61.9588 0 
-46.6876 -10.3974 0 
-53.5868 -54.2166 0 
-31.1633 -47.6244 0 
-67.5438 -44.0368 0 
-59.6825 -65.3432 0 
-13.4845 -78.8135 0 
-67.2385 -66.5558 0 
2.66424 -38.9105 0 
-60.2025 13.569 0 
-51.8292 -18.2089 0 
-58.65 -21.9552 0 
-79.956 -45.797 0 
-49.1158 -18.2448 0 
-49.0848 -16.2501 0 
1.18767 -20.9427 0 
-34.9052 -7.61702 0 
-70.3477 -5.96272 0 
1.72553 -29.1828 0 
-54.6538 -3.17916 0 
-53.5983 -33.5933 0 
-72.9037 -8.79698 0 
-61.4669 -19.8575 0 
7.70468 20.5726 0 
-30.171 3.86172 0 
-64.714 -23.3028 0 
5.11622 21.7177 0 
-11.2052 -6.26497 0 
-54.7943 -20.3003 0 
-39.7346 -30.0846 0 
7.56637 21.1175 0 
0.969032 -15.2606 0 
-89.3313 -47.5266 0 
-26.7735 31.731 0 
-53.9604 -43.2192 0 
-10.2638 -22.871 0 
-12.8827 19.8837 0 
-24.9053 -27.3448 0 
-36.8692 22.687 0 
-25.628 26.6761 0 
-27.7901 8.70138 0 
0.835385 -11.254 0 
-50.7499 -31.536 0 
-47.073 -3.1747 0 
-35.8781 -16.0489 0 
-70.8625 -1.11767 0 
-69.9221 -28.4917 0 
-9.68225 25.1146 0 
2.16355 -24.9565 0 
-44.5953 6.00053 0 
-51.8363 -25.444 0 