<VTKFile type="UnstructuredGrid" version="0.1" byte_order="BigEndian">
  <UnstructuredGrid>
        <Piece NumberOfPoints="8000" NumberOfCells="0" Time= "0.395">      <Points>
        <DataArray name="Position" type="Float32"  NumberOfComponents= "3"  format="ascii">

49.7406 12.4985 0 
52.2788 25.3527 0 
54.0697 19.9055 0 
56.3882 21.7197 0 
55.8915 34.5516 0 
56.7885 20.547 0 
58.2742 24.4721 0 
56.8627 27.1012 0 
57.9915 29.9935 0 
59.9594 4.58391 0 
59.9201 8.86597 0 
60.6585 13.9184 0 
60.1313 13.1349 0 
61.0283 16.2304 0 
61.2473 18.6833 0 
61.2933 20.5401 0 
59.0942 21.7485 0 
58.7865 21.9801 0 
60.7763 21.8971 0 
59.3672 24.0965 0 
60.7226 26.5572 0 
60.5451 24.3784 0 
61.3484 24.8218 0 
61.4013 28.6888 0 
59.3959 30.5332 0 
61.0117 30.3253 0 
60.008 32.6528 0 
60.8788 36.7051 0 
63.2204 2.25535 0 
63.2207 1.63968 0 
63.6557 4.59062 0 
61.9232 2.1546 0 
61.6388 5.21109 0 
61.6387 9.36427 0 
62.0268 10.9028 0 
63.579 14.0119 0 
62.583 12.9418 0 
61.5573 12.4886 0 
63.2403 12.6781 0 
62.7939 16.0068 0 
62.9129 14.7802 0 
63.512 15.3843 0 
63.5655 14.7278 0 
63.6665 15.6653 0 
63.0413 14.4476 0 
62.3338 17.7591 0 
62.3329 18.1138 0 
64.0515 19.0929 0 
61.9785 20.4655 0 
61.4903 21.083 0 
63.2699 19.7548 0 
61.5514 24.3086 0 
62.2621 23.182 0 
63.4561 22.481 0 
63.0897 24.8184 0 
62.0508 26.7804 0 
62.6563 26.1366 0 
63.2008 28.942 0 
62.9169 30.4562 0 
62.3196 31.7668 0 
62.3651 33.052 0 
62.3659 33.7581 0 
61.7677 34.6003 0 
63.8663 33.9499 0 
62.563 34.8234 0 
61.7886 36.4746 0 
62.7899 36.2047 0 
63.7241 36.1466 0 
63.1719 36.3441 0 
63.189 35.0285 0 
63.0524 36.9039 0 
62.4322 37.4116 0 
64.5572 1.07689 0 
66.3721 1.61558 0 
66.2583 0.120527 0 
65.1947 37.9848 0 
64.3244 0.0779781 0 
64.9145 0.106981 0 
66.2838 1.81089 0 
64.6176 1.45395 0 
66.0654 2.70004 0 
65.1893 2.16034 0 
66.157 4.36631 0 
63.9634 3.53557 0 
66.0951 5.85228 0 
65.5985 4.78472 0 
65.1185 5.94033 0 
65.8858 6.75376 0 
64.6141 6.40415 0 
65.1354 8.6454 0 
64.8391 7.79989 0 
64.2671 7.59522 0 
65.1005 8.68347 0 
64.3842 9.21344 0 
63.7715 9.43916 0 
64.9335 9.89617 0 
64.4022 11.4572 0 
65.2722 10.4457 0 
64.867 11.1392 0 
64.1122 11.0069 0 
64.4646 12.8559 0 
65.713 13.8931 0 
65.6609 11.9123 0 
64.0871 12.8977 0 
65.6327 11.6481 0 
64.7795 13.2374 0 
64.2306 15.8751 0 
65.4364 14.4903 0 
64.4458 15.0895 0 
65.7048 16.6036 0 
64.3828 15.1804 0 
65.7304 16.3234 0 
63.9716 16.739 0 
65.2961 19.021 0 
64.8664 18.1139 0 
64.0537 17.3986 0 
63.9429 18.1152 0 
66.2395 17.356 0 
66.1062 18.7088 0 
65.1379 19.5278 0 
65.2834 18.284 0 
64.3966 21.0146 0 
65.9213 20.2641 0 
65.8968 20.0511 0 
64.8231 22.2194 0 
64.8892 19.5688 0 
64.3636 20.3557 0 
65.3647 20.6837 0 
65.1023 20.2104 0 
66.0257 23.5716 0 
64.1034 24.8888 0 
66.4466 25.1272 0 
64.311 28.1532 0 
65.5683 24.5453 0 
65.8555 26.1231 0 
65.5243 26.7375 0 
64.8401 25.8881 0 
65.0254 29.2248 0 
65.6256 27.7991 0 
66.1342 29.3395 0 
64.1035 28.3471 0 
63.7046 28.6435 0 
66.3722 28.3772 0 
64.8778 31.5591 0 
65.714 30.4933 0 
65.9456 31.2281 0 
65.8422 30.1561 0 
66.1137 31.9527 0 
63.8841 31.4026 0 
65.8133 31.438 0 
65.4167 30.8257 0 
65.2549 30.0217 0 
64.338 31.1163 0 
65.8562 29.8546 0 
66.435 30.4735 0 
65.3135 33.7688 0 
65.7975 33.5257 0 
65.0967 34.2056 0 
64.6133 36.4178 0 
64.1232 34.5725 0 
65.9967 39.1577 0 
65.8719 37.3236 0 
64.0033 37.7171 0 
64.3984 37.5578 0 
67.2488 1.05169 0 
67.0567 38.0634 0 
68.4968 1.22876 0 
67.5345 1.63167 0 
68.4333 0.982124 0 
68.0852 1.51124 0 
68.0461 3.72472 0 
67.4017 2.01554 0 
68.0334 2.03715 0 
68.7065 3.07513 0 
66.6065 3.16438 0 
68.8879 2.56921 0 
68.3924 3.14174 0 
67.0961 4.57468 0 
66.7653 6.64063 0 
68.3197 6.24857 0 
67.3438 4.29754 0 
67.9938 6.05491 0 
68.1172 6.09632 0 
68.0195 6.00858 0 
68.5118 5.41933 0 
68.0598 5.77823 0 
68.9495 6.54237 0 
68.1637 5.70661 0 
66.5036 7.94494 0 
68.1486 8.32891 0 
68.1897 9.34532 0 
67.1639 10.0262 0 
67.4774 6.81318 0 
67.0095 8.82826 0 
68.3671 7.71044 0 
66.9555 8.97783 0 
67.9859 8.56382 0 
68.7282 8.69554 0 
68.0401 10.4559 0 
66.7249 9.84185 0 
68.5037 10.1329 0 
67.9516 10.5952 0 
66.5499 11.6332 0 
68.3537 10.9951 0 
67.9281 11.2998 0 
68.2069 11.2925 0 
67.6957 11.7547 0 
67.4938 11.2371 0 
68.761 10.9458 0 
67.7281 10.2103 0 
66.6489 11.6839 0 
68.4428 11.7578 0 
67.916 13.3793 0 
66.4694 15.0052 0 
67.0705 13.9535 0 
67.719 14.4903 0 
68.2128 13.6764 0 
67.7363 13.0665 0 
66.1546 14.1945 0 
67.4344 15.8432 0 
67.4068 16.3357 0 
67.0616 15.7295 0 
67.2283 16.1289 0 
66.3139 16.1429 0 
68.4901 16.9043 0 
68.5433 17.1748 0 
67.3787 17.4809 0 
66.8134 16.0387 0 
68.0783 15.3753 0 
67.7647 14.8206 0 
67.9339 14.4714 0 
68.9265 16.131 0 
68.7486 14.6562 0 
68.159 15.0749 0 
67.8318 16.5805 0 
66.9482 16.8525 0 
68.4797 18.3029 0 
67.3603 17.6025 0 
66.4054 17.5767 0 
68.0771 17.343 0 
67.3158 17.0502 0 
67.9502 18.0521 0 
68.2258 18.5027 0 
68.3712 17.1208 0 
68.842 19.1765 0 
66.5221 18.7144 0 
67.4873 19.1348 0 
66.6147 19.0462 0 
66.9038 17.4273 0 
68.8119 18.6523 0 
67.7008 20.7135 0 
68.0572 21.3734 0 
68.343 21.8779 0 
68.1817 21.5536 0 
68.3513 21.5007 0 
66.7865 19.3706 0 
68.1951 21.6614 0 
67.5103 20.6977 0 
66.5766 21.0917 0 
68.3934 19.924 0 
67.9792 21.5402 0 
68.0283 19.6738 0 
66.7829 21.8605 0 
67.2828 22.2859 0 
68.3523 22.2509 0 
68.5864 24.3051 0 
68.6874 23.1435 0 
67.1313 24.1778 0 
68.4066 23.1565 0 
67.3659 23.8506 0 
68.4748 22.6593 0 
66.8071 24.2897 0 
66.699 22.8295 0 
68.664 22.5043 0 
68.5599 22.4285 0 
66.5702 24.8469 0 
66.6218 26.4256 0 
67.1201 25.4187 0 
68.2538 26.5739 0 
67.1154 26.5767 0 
68.9615 24.7579 0 
68.3977 28.3978 0 
66.96 29.2535 0 
68.0055 27.3797 0 
68.2206 28.0661 0 
67.2649 29.909 0 
67.7238 27.6388 0 
67.358 28.1489 0 
68.9462 29.1241 0 
68.3896 26.728 0 
67.232 27.326 0 
67.15 30.6888 0 
67.3522 31.4082 0 
67.4361 31.1787 0 
66.6631 29.643 0 
66.4986 30.3223 0 
68.285 30.0682 0 
69.0401 29.8458 0 
68.3487 30.2528 0 
67.4124 31.7984 0 
68.9646 30.8669 0 
68.1614 33.2033 0 
66.7039 32.6075 0 
67.1387 32.8656 0 
66.8517 34.3973 0 
68.7981 32.7887 0 
67.4144 34.5382 0 
66.6073 34.661 0 
67.5224 33.6541 0 
66.4962 36.7702 0 
67.2644 35.8728 0 
66.4176 35.1502 0 
67.5569 36.0724 0 
68.4207 36.3485 0 
68.1615 35.1733 0 
67.0244 36.7279 0 
67.6156 35.9035 0 
67.9474 35.3755 0 
68.7534 35.3719 0 
66.7771 34.6334 0 
67.6529 37.3055 0 
68.7345 37.3552 0 
68.7492 38.0618 0 
67.2135 0.941911 0 
70.9387 39.5332 0 
69.5197 39.429 0 
70.0385 1.45784 0 
69.2702 0.218872 0 
70.4274 39.6675 0 
70.9981 1.82197 0 
68.6551 1.64854 0 
70.2597 1.15237 0 
71.051 0.124077 0 
69.9529 39.6791 0 
70.8278 0.852764 0 
71.0896 0.672917 0 
69.8517 3.47182 0 
70.5258 2.84429 0 
69.9423 2.28219 0 
70.4881 4.04052 0 
69.8326 2.39681 0 
71.2202 3.71581 0 
71.2661 4.66529 0 
69.118 2.29591 0 
71.1486 4.71504 0 
68.8447 3.54677 0 
71.0184 2.53551 0 
70.5117 5.05061 0 
69.7979 4.59154 0 
71.2683 2.62405 0 
70.3254 5.90559 0 
71.2105 5.33858 0 
69.0278 6.07019 0 
68.7593 6.72607 0 
71.1336 4.85941 0 
69.3045 5.04487 0 
69.3835 5.52656 0 
69.1941 5.75258 0 
69.6479 5.39856 0 
70.7165 5.94821 0 
70.6032 6.7973 0 
69.2414 6.40208 0 
70.3854 8.62366 0 
71.1143 7.61826 0 
69.7151 7.89021 0 
69.6779 6.89962 0 
70.0069 7.45272 0 
69.9252 9.23052 0 
71.4229 8.77208 0 
69.0733 8.09158 0 
71.2339 8.33114 0 
70.3703 9.56943 0 
70.9147 7.13713 0 
71.2733 7.45985 0 
70.778 8.5364 0 
70.6482 6.72646 0 
68.8749 11.9393 0 
69.9205 10.1105 0 
70.828 11.2274 0 
70.5265 11.7133 0 
68.9837 10.3852 0 
70.414 9.13161 0 
69.2529 9.89328 0 
69.8825 10.8667 0 
70.0479 9.74205 0 
71.2557 9.97173 0 
70.5666 10.601 0 
69.391 10.4662 0 
69.7112 10.2842 0 
69.3479 11.1924 0 
69.762 11.5172 0 
71.2744 10.1295 0 
70.1858 11.2551 0 
69.128 11.0132 0 
69.3175 13.2875 0 
70.7509 12.2501 0 
70.6481 13.0706 0 
69.2652 11.714 0 
69.9027 12.0232 0 
70.6499 13.6787 0 
69.6556 12.409 0 
69.1287 11.9756 0 
70.1811 12.909 0 
70.916 13.5398 0 
71.276 14.8013 0 
68.8488 11.835 0 
69.6529 13.4796 0 
70.329 13.3916 0 
69.9994 13.8475 0 
70.0018 15.7 0 
70.744 14.4645 0 
69.0895 14.7966 0 
70.108 14.3208 0 
69.0207 14.428 0 
69.6966 15.4706 0 
68.972 15.6914 0 
69.4894 14.3433 0 
70.5725 16.4718 0 
70.2225 16.0662 0 
69.8783 14.5993 0 
69.1516 16.3486 0 
70.2163 15.6149 0 
71.2081 14.4067 0 
71.126 15.9177 0 
70.2805 16.1284 0 
69.3039 15.0697 0 
69.9649 15.9446 0 
68.9135 17.9487 0 
70.0645 16.9921 0 
70.2594 18.7224 0 
68.8618 17.1601 0 
71.1787 17.892 0 
69.6704 19.593 0 
70.6784 18.4775 0 
69.4638 18.3214 0 
71.3277 18.4582 0 
69.2955 18.8213 0 
69.884 18.7975 0 
69.5417 19.6399 0 
69.7088 18.606 0 
71.3717 18.6746 0 
70.6113 17.4282 0 
70.4156 21.2726 0 
71.0091 19.9403 0 
70.5855 20.7683 0 
70.1267 20.8376 0 
70.6147 21.0035 0 
70.6803 20.0982 0 
71.1542 21.0789 0 
71.3425 20.6782 0 
70.9431 21.8306 0 
69.9813 21.0436 0 
69.6871 19.3437 0 
69.6698 21.7228 0 
69.9844 20.0793 0 
70.678 19.6249 0 
71.2636 21.2689 0 
70.3826 21.2686 0 
70.9956 19.9541 0 
69.7508 21.1063 0 
68.6505 21.3054 0 
71.2274 22.2339 0 
68.8848 22.8193 0 
69.7528 22.2198 0 
69.7684 24.2898 0 
69.3199 24.1379 0 
69.9643 23.6697 0 
70.3245 23.9206 0 
70.4969 23.4782 0 
69.4836 24.6787 0 
69.4115 24.086 0 
69.9114 22.5584 0 
71.2707 24.1599 0 
69.4348 24.3134 0 
70.0614 24.9305 0 
70.3308 22.1807 0 
70.2189 22.1564 0 
69.4659 22.4653 0 
69.3785 23.7923 0 
71.2691 22.9388 0 
69.0135 23.3052 0 
70.6837 24.4048 0 
69.148 26.9369 0 
70.309 26.6912 0 
69.8785 26.4613 0 
70.7316 26.163 0 
70.9312 27.3517 0 
71.0682 26.8513 0 
70.8858 24.8914 0 
69.0722 25.9806 0 
70.8262 27.2633 0 
69.0799 28.0464 0 
71.1134 27.7063 0 
71.301 27.9692 0 
71.3801 27.7855 0 
71.291 29.1236 0 
71.1697 28.04 0 
70.0654 29.5777 0 
69.7474 28.0189 0 
70.2425 27.4886 0 
71.0918 27.7888 0 
69.6468 26.9301 0 
69.9334 29.0129 0 
69.1412 29.185 0 
69.8184 28.5126 0 
70.0739 28.6343 0 
70.7776 29.1366 0 
70.3205 27.4053 0 
70.7787 27.9912 0 
68.9133 28.8233 0 
70.2169 31.831 0 
71.4601 29.5017 0 
69.6946 29.9008 0 
70.425 31.2539 0 
70.8159 30.6704 0 
70.1942 30.1044 0 
[...]
      <PointData Vectors="vector">
        <DataArray type="Float32" Name="Velocity" NumberOfComponents="3" format="ascii">

-247.14 -185.82 0 
-231.477 -103.832 0 
-217.522 -134.619 0 
-235.641 -128.44 0 
-212.991 -122.006 0 
-222.551 -80.1046 0 
-204.114 -67.0263 0 
-178.278 72.2331 0 
-269.548 -148.535 0 
-281.864 -103.463 0 
-202.439 -121.788 0 
-234.426 -105.966 0 
-209.005 -16.8981 0 
-209.076 -99.282 0 
-207.387 30.999 0 
-229.446 -83.5381 0 
-261.856 -189.093 0 
-242.129 -194.948 0 
-188.008 90.3909 0 
-228.842 -151.355 0 
-250.739 -134.541 0 
-181.481 -29.4214 0 
-244.665 -135.382 0 
-279.267 -138.303 0 
-229.652 -156.817 0 
-195.73 -139.65 0 
-238.167 -133.411 0 
-235.475 -109.269 0 
-225.061 -174.372 0 
-209.901 -149.462 0 
-233.766 -23.8114 0 
-222.993 -111.176 0 
-228.683 -130.183 0 
-204.984 -115.53 0 
-246.217 -66.4851 0 
-232.007 -91.5351 0 
-199.35 -69.3518 0 
-219.569 -64.6166 0 
-200.38 -100.918 0 
-228.916 -85.9354 0 
-230.23 -96.1415 0 
-208.323 -69.5506 0 
-196.947 -77.3017 0 
-254.884 -57.2204 0 
-242.227 37.7034 0 
-196.205 -32.6955 0 
-248.818 -238.562 0 
-251.099 -68.6051 0 
-217.014 -37.0891 0 
-187.315 -57.3286 0 
-199.244 -66.7205 0 
-204.405 -47.2856 0 
-241.028 -76.129 0 
-216.845 -43.2738 0 
-204.429 -11.0306 0 
-251.324 -184.935 0 
-221.781 -158.838 0 
-209.752 -172.081 0 
-227.51 -23.2534 0 
-245.833 -33.7763 0 
-189.487 -33.833 0 
-227.444 -129.21 0 
-211.204 -24.2542 0 
-249.532 -172.976 0 
-233.562 -179.302 0 
-288.023 -169.274 0 
-204.576 16.2057 0 
-204.576 -26.8952 0 
-196.466 -185.677 0 
-218.843 -159.732 0 
-239.493 -192.166 0 
-231.762 -140.202 0 
-281.608 -160.403 0 
-217.717 -99.8583 0 
-273.742 -134.056 0 
-212.277 -148.645 0 
-268.405 -27.1692 0 
-176.564 107.364 0 
-271.188 -160.545 0 
-210.428 -141.799 0 
-271.069 -120.179 0 
-278.223 -141.435 0 
-222.494 -160.741 0 
-185.799 20.7001 0 
-201.696 -175.707 0 
-274.317 -99.8517 0 
-138.421 103.583 0 
-164.295 -107.744 0 
-205.805 -154.768 0 
-227.92 -80.8958 0 
-217.506 -99.8275 0 
-227.575 -23.0136 0 
-222.771 -134.307 0 
-229.666 -94.9288 0 
-267.174 -127.424 0 
-213.666 145.106 0 
-219.884 -63.7909 0 
-287.892 -61.9359 0 
-247.11 -146.675 0 
-272.602 -101.783 0 
-186.683 -115.078 0 
-203.693 -101.662 0 
-262.396 -99.2491 0 
-208.993 -94.3351 0 
-229.953 -87.3809 0 
-280.943 -95.3359 0 
-241.473 -85.0367 0 
-213.303 58.6997 0 
-254.357 -113.076 0 
-255.958 -49.1154 0 
-240.787 -51.0299 0 
-216.756 -59.1773 0 
-242.661 -249.91 0 
-222.51 -39.4286 0 
-196.12 -107.577 0 
-249.763 -84.1377 0 
-223.745 -88.901 0 
-184.403 49.2831 0 
-232.039 -71.6208 0 
-262.002 -202.255 0 
-220.888 -61.8657 0 
-186.027 -14.7679 0 
-203.027 -206.699 0 
-221.86 -60.3861 0 
-234.806 -38.2699 0 
-180.714 -53.1998 0 
-181.328 -163.222 0 
-251.728 -198.644 0 
-200.467 -23.3961 0 
-253.626 -57.3159 0 
-258.951 -169.138 0 
-244.988 -140.001 0 
-254.712 -173.288 0 
-136.097 71.5944 0 
-251.196 -47.1636 0 
-236.959 -21.2458 0 
-170.252 57.8332 0 
-234.303 -162.773 0 
-215.21 -151.444 0 
-226.201 -177.84 0 
-205.38 -27.2509 0 
-214.511 -176.147 0 
-221.025 -63.8475 0 
-234.506 -197.818 0 
-187.446 79.5297 0 
-180.365 -51.1134 0 
-272.134 -34.35 0 
-232.823 -139.662 0 
-226.052 -178.207 0 
-236.879 -168.796 0 
-186.784 -152.411 0 
-249.099 -18.3088 0 
-209.252 -170.252 0 
-223.79 18.7631 0 
-253.702 -49.2854 0 
-240.728 1.95274 0 
-148.679 64.0772 0 
-248.142 -190.027 0 
-161.111 3.13495 0 
-166.383 -144.052 0 
-227.078 2.00719 0 
-250.045 -149.144 0 
-238.004 -205.784 0 
-259.375 -131.028 0 
-232.312 -161.28 0 
-259.569 -177.715 0 
-213.138 10.0601 0 
-219.106 -138.816 0 
-181.993 78.4357 0 
-147.234 99.5911 0 
-259.989 -37.8706 0 
-225.058 -147.183 0 
-261.085 -119.291 0 
-263.541 -162.052 0 
-252.925 -148.367 0 
-234.017 -151.58 0 
-239.213 -145.042 0 
-249.017 -168.641 0 
-227.743 43.0276 0 
-197.833 -108.256 0 
-185.141 -19.2656 0 
-176.964 -79.5348 0 
-219.024 -133.438 0 
-178.647 -11.5406 0 
-233.31 -122.563 0 
-192.698 -97.8761 0 
-209.938 -100.515 0 
-193.407 -137.246 0 
-188.528 -109.881 0 
-208.594 -105.62 0 
-235.685 -119.804 0 
-213.658 -123.446 0 
-233.603 -98.2524 0 
-249.149 -146.715 0 
-275.496 -131.44 0 
-255.417 -118.333 0 
-211.345 -150.791 0 
-189.299 -11.0767 0 
-210.821 -89.4423 0 
-254.843 -124.925 0 
-209.403 -150.962 0 
-216.983 -83.0279 0 
-269.828 -85.0407 0 
-230.925 -89.981 0 
-193.247 -88.4478 0 
-240.003 -88.7038 0 
-201.37 -89.4285 0 
-215.214 -20.5181 0 
-225.871 -103.197 0 
-212.042 -106.164 0 
-192.349 12.4152 0 
-192.865 -98.8571 0 
-211.922 -93.2082 0 
-205.327 -136.706 0 
-188.153 -90.6131 0 
-215.912 -4.33136 0 
-215.533 -70.0731 0 
-190.447 -70.5848 0 
-216.229 -106.892 0 
-229.863 -124.95 0 
-211.677 -80.1906 0 
-191.432 -17.7037 0 
-217.679 -92.9675 0 
-227.283 -101.152 0 
-203.667 -76.5194 0 
-242.136 -67.6455 0 
-210.972 -107.553 0 
-214.753 -83.3581 0 
-257.413 -115.588 0 
-207.622 -75.9703 0 
-268.797 -99.961 0 
-212.239 -44.0694 0 
-160.543 -78.7477 0 
-269.783 -104.391 0 
-274.268 -97.5534 0 
-193.31 -110.779 0 
-226.997 -76.6753 0 
-224.49 -62.3125 0 
-202.827 -85.8794 0 
-193.995 -70.7945 0 
-237.758 -195.739 0 
-243.42 -255.858 0 
-246.3 -104.812 0 
-197.365 -64.3753 0 
-237.876 -82.9847 0 
-197.615 -101.727 0 
-203.227 -56.5255 0 
-218.316 -235.499 0 
-227.42 -189.03 0 
-272.517 -47.427 0 
-215.065 -201.67 0 
-225.352 -181.816 0 
-199.156 82.9778 0 
-244.068 -80.4899 0 
-249.935 -28.443 0 
-228.236 -213.683 0 
-223.871 -50.1732 0 
-167.191 -70.8649 0 
-171.279 56.9123 0 
-256.019 -92.0818 0 
-229.969 -69.892 0 
-237.039 -212.235 0 
-175.238 67.0973 0 
-208.073 -195.37 0 
-241.531 -72.0105 0 
-211.509 -61.2786 0 
-208.251 -68.5751 0 
-210.777 -70.9701 0 
-184.695 -43.0437 0 
-252.44 -161.048 0 
-226.48 -82.5784 0 
-227.147 -55.1078 0 
-224.116 -13.3507 0 
-268.701 -194.519 0 
-224.003 -172.373 0 
-223.07 -171.311 0 
-220.977 -168.128 0 
-249.379 -163.776 0 
-234.914 -30.3626 0 
-163.287 -41.5822 0 
-258.932 -171.804 0 
-233.928 -53.6866 0 
-179.625 60.8551 0 
-200.874 -196.835 0 
-202.724 -210.718 0 
-237.697 -60.9207 0 
-195.136 -77.2054 0 
-133.169 70.9949 0 
-201.617 -31.9998 0 
-264.689 -59.6933 0 
-257.023 -200.238 0 
-176.756 -159.755 0 
-209.726 -184.478 0 
-234.978 -162.763 0 
-234.559 -40.8249 0 
-205.775 -66.8076 0 
-260.711 -163.73 0 
-196.366 -136.453 0 
-236.551 -180.465 0 
-251.754 -38.0198 0 
-255.416 -163.869 0 
-235.919 -220.392 0 
-196.623 93.8026 0 
-197.47 -157.362 0 
-220.832 -36.3472 0 
-229.822 -53.8575 0 
-232.628 -203.046 0 
-220.769 -44.8133 0 
-237.484 -167.289 0 
-236.572 -182.593 0 
-242.23 -129.586 0 
-240.433 -129.149 0 
-206.962 -177.289 0 
-235.469 -187.446 0 
-249.103 -147.079 0 
-226.248 -2.90663 0 
-213.447 -36.7182 0 
-204.058 65.1999 0 
-182.177 -37.1121 0 
-215.739 -61.7406 0 
-188.067 -13.066 0 
-250.718 -203.491 0 
-236.722 -21.7376 0 
-231.806 -21.3456 0 
-243.804 -183.311 0 
-222.203 -159.194 0 
-255.629 -164.335 0 
-227.917 -14.8125 0 
-228.498 -1.97063 0 
-271.93 -153.217 0 
-231.565 -176.502 0 
-225.288 -195.481 0 
-206.154 -152.231 0 
-192.741 10.6434 0 
-250.423 -197.273 0 
-168.853 -172.994 0 
-228.532 -180.725 0 
-188.601 -187.063 0 
-213.911 -184.399 0 
-255.529 -148.093 0 
-216.024 -144.658 0 
-233.949 -132.15 0 
-197.579 -33.876 0 
-183.393 -34.9637 0 
-289.641 -142.573 0 
-178.06 17.8296 0 
-219.7 -180.902 0 
-235.7 -136.439 0 
-217.681 -146.985 0 
-225.078 9.13695 0 
-202.74 -13.7605 0 
-246.271 -164.589 0 
-228.065 2.59496 0 
-205.773 -159.075 0 
-281.437 -161.678 0 
-209.917 -160.142 0 
-246.942 -157.508 0 
-266.475 -138.235 0 
-173.014 -25.7606 0 
-244.958 -123.123 0 
-256.61 -152.261 0 
-218.839 -158.693 0 
-250.504 -168.149 0 
-183.056 4.86937 0 
-223.462 -26.2505 0 
-196.35 -117.787 0 
-231.862 -155.922 0 
-210.625 -121.343 0 
-233.474 -167.016 0 
-218.471 -139.845 0 
-207.364 -118.977 0 
-225.06 -139.005 0 
-223.282 -139.669 0 
-198.098 -87.9784 0 
-204.996 -117.579 0 
-225.419 -122.43 0 
-234.447 -111.877 0 
-215.063 -163.437 0 
-191.914 -120.455 0 
-246.654 -153.409 0 
-218.685 -173.149 0 
-239.216 -102.023 0 
-191.912 -110.536 0 
-180.948 -87.4076 0 
-201.313 15.8699 0 
-218.803 -145.276 0 
-232.142 -125.893 0 
-181.237 15.3586 0 
-227.439 -113.973 0 
-193.488 -2.51032 0 
-230.686 -140.322 0 
-219.818 -100.809 0 
-226.98 -105.615 0 
-257.64 -144.955 0 
-222.163 -94.181 0 
-212.304 -123.861 0 
-201.126 -111.366 0 
-195.896 -106.132 0 
-182.637 -125.411 0 
-197.698 -110.252 0 
-206.475 -58.9397 0 
-245.619 -78.156 0 
-216.677 -84.0704 0 
-228.795 -77.1583 0 
-196.769 -29.8863 0 
-212.86 -76.5617 0 
-218.665 -88.5208 0 
-260.371 -79.0706 0 
-208.347 -90.6157 0 
-182.086 -75.5307 0 
-158.814 25.7796 0 
-231.396 14.4722 0 
-193.561 -60.5138 0 
-216.374 -68.1394 0 
-210.522 -106.51 0 
-224.381 -209.917 0 
-203.977 -107.005 0 
-160.591 -88.4494 0 
-214.478 -86.134 0 
-217.062 30.3497 0 
-200.211 -104.522 0 
-246.4 -235.83 0 
-186.418 -247.871 0 
-231.199 -111.889 0 
-211.372 -124.057 0 
-255.085 -250.657 0 
-212.665 -226.743 0 
-240.198 -134.139 0 
-203.985 -54.5726 0 
-230.193 -107.847 0 
-217.014 -61.4656 0 
-184.538 -93.2276 0 
-174.167 -64.7567 0 
-196.212 -200.172 0 
-214.898 -46.5678 0 
-205.932 -212.925 0 
-230.729 -67.8964 0 
-194.943 -47.3654 0 
-158.361 69.5772 0 
-188.344 -179.426 0 
-203.24 -82.4742 0 
-184.422 -86.2159 0 
-214.751 -63.4652 0 
-189.178 -110.562 0 
-230.75 -164.34 0 
-222.041 -168.352 0 
-216.07 -196.69 0 
-171.45 -57.2171 0 
-176.509 -169.862 0 
-250.667 -17.2284 0 
-238.936 -56.4463 0 
-206.342 -184.394 0 
-248.443 -169.087 0 
-213.044 -87.5603 0 
-185.326 -97.7815 0 
-180.926 -229.123 0 
-218.71 -69.7403 0 
-225.557 -181.765 0 
-218.105 -205.616 0 
-201.372 -85.7764 0 
-219.843 -39.6293 0 
-140.434 79.4074 0 
-213.577 -200.377 0 
-184.407 -192.454 0 
-223.612 -217.333 0 
-182.455 -38.3199 0 
-220.916 -90.7559 0 
-194.766 76.9672 0 
-204.282 -71.7346 0 
-210.675 -209.387 0 
-233.531 -166.118 0 
-235.002 -52.7087 0 
-239.055 -203.799 0 
-238.551 -214.16 0 
-213.475 -184.095 0 
-211.942 -212.181 0 
-228.957 -151.535 0 
-236.668 -158.27 0 
-252.703 -195.227 0 
-238.533 -201.971 0 
-284.285 -213.272 0 
-218.365 -194.263 0 
-190.961 -201.332 0 
-213.204 -185.318 0 
-216.787 -165.576 0 
-207.492 -189.008 0 
-209.542 16.1438 0 
-229.455 -180.009 0 
-230.856 -189.001 0 
-215.844 -200.312 0 
-225.313 -154.423 0 
-190.936 -206.849 0 
-223.426 -66.38 0 
-199.13 52.3465 0 
-262.511 -27.6375 0 
-228.634 -179.276 0 
-222.765 -183.04 0 
-226.455 -161.787 0 
-246.25 -214.55 0 
-175.183 101.729 0 
-204.096 -55.6629 0 
-244.259 -130.766 0 
-248.277 -183.742 0 
-189.637 -0.691937 0 
-213.583 11.0375 0 
-232.462 -176.049 0 
-265.563 -169.792 0 
-193.05 -139.263 0 
-224.423 -25.487 0 
-229.388 4.91906 0 
-253.409 -171.537 0 
-200.399 -33.9546 0 
-227.715 6.60887 0 
-129.348 49.0567 0 
-240.632 -186.264 0 
-264.195 -157.101 0 
-224.201 -160.745 0 
-252.192 -177.022 0 
-224.367 -30.0864 0 
-200.483 86.2528 0 
-220.735 -177.207 0 
-228.399 -199.431 0 
-262.175 -188.176 0 
-196.553 -157.344 0 
-261.507 -205.613 0 
-173.119 -22.5047 0 
-197.004 -186.703 0 
-211.332 -2.46481 0 
-238.335 -215.047 0 
-226.018 -126.565 0 
-267.918 -176.215 0 
-234.743 -196.154 0 
-189.632 -152.372 0 
-176.667 -129.907 0 
-209.694 -147.47 0 
-231.687 -183.031 0 
-219.793 -162.153 0 
-229.429 -143.33 0 
-199.67 -133.718 0 
-248.812 -151.762 0 
-221.503 -188.832 0 
-210.596 -137.531 0 
-253.605 -141.071 0 
-173.002 -174.196 0 
-177.789 -171.528 0 
-270.888 -189.335 0 
-173.539 -8.74577 0 
-223.325 -192.037 0 
-192.288 -178.497 0 
-278.072 -190.436 0 
-251.154 -192.43 0 
-213.698 -164.388 0 
-194.629 -15.6541 0 
-203.546 -176.992 0 
-187.886 -38.0068 0 
-202.993 -184.91 0 
-184.944 -152.955 0 
-270.099 -166.188 0 
-267.357 -169.647 0 
-216.561 -124.71 0 
-191.681 -173.509 0 
-210.869 -149.575 0 
-264.768 -173.826 0 
-187.562 -103.101 0 
-225.369 -120.474 0 
-207.378 -176.417 0 
-176.37 110.592 0 
-190.231 -170.883 0 
-238.35 -152.318 0 
-189.227 -126.989 0 
-207.745 -135.12 0 
-255.525 -119.904 0 
-174.422 1.87867 0 
-234.634 -99.4073 0 
-226.001 -108.975 0 
-183.524 112.643 0 
-154.602 100.855 0 
-251.484 -156.596 0 
-230.066 -119.779 0 
-196.674 -139.245 0 
-243.041 -145.178 0 
-240.011 -142.948 0 
-143.951 -46.569 0 
-192.579 -157.746 0 
-210.451 -82.7474 0 
-187.426 -158.521 0 
-232.648 -143.945 0 
-236.223 -130.364 0 
-178.652 4.60124 0 
-211.193 -118.894 0 
-226.24 -124.954 0 
-233.307 -140.524 0 
-197.708 -139.398 0 
-239.335 -135.316 0 
-211.456 -120.077 0 
-194.333 -157.671 0 
-213.433 -110.606 0 
-204.124 -113.393 0 
-153.78 -80.7011 0 
-224.859 -134.471 0 
-238.821 -102.397 0 
-209.795 19.0519 0 
-190.433 -137.916 0 
-228.428 -107.805 0 
-217.337 -109.524 0 
-173.272 -137.319 0 
-174.649 27.8385 0 
-207.655 -20.6391 0 
-242.333 -158.23 0 
-227.474 -116.981 0 
-236.827 -136.412 0 
-192.091 -95.8989 0 
-243.41 -154.629 0 
-182.278 -132.22 0 
-232.647 -106.115 0 
-198.985 -133.331 0 
-193.056 -108.47 0 
-225.217 -84.7678 0 
-201.777 -22.0417 0 
-227.973 -163.128 0 
-213.624 -126.016 0 
-227.869 -103.419 0 
-232.259 -132.359 0 
-286.892 -122.362 0 
-208.003 -135.918 0 
-172.647 13.7189 0 
-245.618 -102.382 0 
-216.174 -126.764 0 
-239.611 -130.297 0 
-232.852 -138.001 0 
-211.732 -114.82 0 
-261.275 -114.847 0 
-259.255 -223.539 0 
-250.455 -105.734 0 
-233.847 -224.717 0 
-222.595 -124.648 0 
-199.708 -14.0818 0 
-210.272 -263.958 0 
-208.287 -93.6058 0 
-188.493 -47.5555 0 
-236.542 -142.089 0 
-234.207 -146.629 0 
-277.808 -110.246 0 
-151.282 -97.6216 0 
-221.555 -115.028 0 
-207.772 -88.7848 0 
-211.313 -107.684 0 
-152.504 39.0297 0 
-253.089 -74.3066 0 
-204.596 29.7752 0 
-233.773 -118.722 0 
-236.176 -67.877 0 
-173.121 -94.005 0 
-199.115 -80.6861 0 
-193.005 -81.979 0 
-191.765 -103.58 0 
-217.131 -54.948 0 
-220.04 -77.2373 0 
-236.411 -55.4226 0 
-206.326 -207.385 0 
-207.977 -78.6876 0 
-262.522 -99.4794 0 
-212.329 -84.0631 0 
-196.218 -100.89 0 
-222.678 -195.817 0 
-229.742 -216.923 0 
-239.331 -63.4634 0 
-210.355 -69.2998 0 
-261.844 -229.546 0 
-212.215 -104.841 0 
-244.293 -89.7624 0 
-242.528 -282.765 0 
-212.971 -123.258 0 
-241.098 -106.571 0 
-226.003 -215.492 0 
-212.424 -33.0972 0 
-186.95 -115.788 0 
-210.435 -53.5816 0 
-213.418 -250.28 0 
-184.93 -52.7249 0 
-208.347 -85.4401 0 
-174.934 -103.473 0 
-240.632 -86.1399 0 
-227.831 -71.9162 0 
-191.848 -49.8287 0 
-194.706 -104.609 0 
-223.845 -76.4243 0 
-198.509 -152.666 0 
-230.001 -216.021 0 
-256.287 -68.2553 0 
-231.708 -203.331 0 
-225.897 -190.802 0 
-214.683 -60.2004 0 
-199.777 -117.2 0 
-142.784 -65.3371 0 
-204.806 -101.374 0 
-184.306 -99.9691 0 
-206.478 -210.265 0 
-213.221 -84.3942 0 
-220.043 -56.2825 0 
-144.918 21.0982 0 
-216.625 -30.7112 0 
-236.667 -58.0403 0 
-265.591 -220.853 0 
-226.795 -103.76 0 
-164.343 -235.888 0 
-220.09 -200.396 0 
-201.695 -184.393 0 
-235.592 -188.557 0 
-242.452 -221.17 0 
-201.235 -234.005 0 
-179.044 -200.32 0 
-210.05 -74.7513 0 
-205.717 -224.526 0 
-168.274 -107.14 0 
-181.057 -205.627 0 
-247.328 -86.2486 0 
-146.789 69.0826 0 
-179.856 -108.501 0 
-213.184 -50.6029 0 
-211.801 -172.92 0 
-183.867 -66.9447 0 
-236.295 -64.3773 0 
-242.749 -102.968 0 
-196.067 -89.0829 0 
-209.102 -227.84 0 
-182.68 -76.7991 0 
-207.147 -204.391 0 
-220.696 -198.45 0 
-191.474 -229.562 0 
-226.571 -182.816 0 
-197.764 -50.8948 0 
-232.437 -61.6207 0 
-193.386 -214.306 0 
-200.694 -74.7731 0 
-189.419 -28.9798 0 
-217.614 -113.283 0 
-219.809 -69.7111 0 
-190.655 -208.146 0 
-225.574 -56.5218 0 
-154.875 -55.9873 0 
-188.552 -194.555 0 
-210.682 -196.21 0 
-223.706 -61.1178 0 
-210.101 -43.4416 0 
-191.715 -193.399 0 
-208.221 -155.571 0 
-241.974 -158.061 0 
-209.669 -179.97 0 
-208.547 -168.654 0 
-227.665 -178.388 0 
-234.597 -204.424 0 
-238.643 -196.08 0 
-197.66 -149.028 0 
-197.746 -220.593 0 
-228.528 -200.886 0 
-253.016 -181.824 0 
-183.611 -60.809 0 
-264.45 -195.621 0 
-207.093 -69.9773 0 
-258.363 -84.9404 0 
-227.888 -56.0065 0 
-228.023 -48.8207 0 
-215.219 -39.5025 0 
-224.974 -172.335 0 
-194.944 -215.617 0 
-246.204 -180.048 0 
-216.52 -54.9864 0 
-178.001 -65.8719 0 
-228.653 -73.1764 0 
-216.304 -174.228 0 
-197.72 -62.8305 0 
-219.847 -142.555 0 
-225.352 -124.112 0 
-248.322 -166.783 0 
-219.391 -151.602 0 
-215.149 -190.697 0 
-175.063 -196.011 0 
-228.061 -29.4434 0 
-186.438 -179.111 0 
-221.005 -68.797 0 
-217.423 -59.3037 0 
-172.264 -198.877 0 
-250.247 -201.851 0 
-248.8 -162.511 0 
-225.144 -196.796 0 
-243.188 -186.429 0 
-175.168 -63.4609 0 
-205.885 -191.678 0 
-228.197 -195.388 0 
-144.286 -55.1292 0 
-213.854 -2.83507 0 
-213.736 -69.3382 0 
-212.209 -161.86 0 
-203.136 -197.734 0 
-245.856 -192.083 0 
-216.878 -186.786 0 
-174.883 -190.272 0 
-235.815 -165.383 0 
-193.884 -190.749 0 
-202.156 -180.277 0 
-221.252 -149.409 0 
-219.69 -163.871 0 
-208.989 -42.243 0 
-255.944 -219.827 0 
-172.389 -170.354 0 
-186.817 -57.7542 0 
-241.969 -157.498 0 
-197.795 -38.2226 0 
-219.23 -164.241 0 
-218.899 -16.9212 0 
-200.816 -188.099 0 
-196.847 -169.46 0 
-208.47 -11.4979 0 
-229.305 -46.618 0 
-222.366 -161.526 0 
-239.115 -163.645 0 
-208.335 -176.848 0 
-200.59 -191.352 0 
-214.191 -151.414 0 
-233.56 -190.872 0 
-191.248 -88.0794 0 
-249.523 -180.508 0 
-167.94 -23.8464 0 
-258.682 -23.7804 0 
-172.202 10.5045 0 
-242.562 -161.644 0 
-210.636 -172.672 0 
-253.171 -18.4168 0 
-214.476 -185.697 0 
-218.275 -187.793 0 
-172.713 -147.3 0 
-226.007 -127.729 0 
-154.452 79.2306 0 
-192.136 -46.9363 0 
-227.084 -4.56333 0 
-197.583 -171.942 0 
-171.079 -162.03 0 
-214.573 -172.415 0 
-257.744 -180.42 0 
-224.97 -150.375 0 
-219.176 -135.605 0 
-209.62 -173.923 0 
-237.906 -146.601 0 
-198.002 -122.55 0 
-255.538 -22.3412 0 
-228.681 -157.164 0 
-184.207 -172.043 0 
-172.877 -148.887 0 
-209.815 -134.004 0 
-220.084 -166.552 0 
-202.379 -126.213 0 
-206.004 -180.077 0 
-174.07 63.3436 0 
-166.81 -164.138 0 
-183.361 -143.345 0 
-159.273 -51.497 0 
-236.225 -168.796 0 
-204.767 -140.242 0 
-213.407 -21.7465 0 
-229.531 -162.566 0 
-256.409 -148.266 0 
-220.934 -169.864 0 
-229.445 -142.543 0 
-226.168 -167.831 0 
-243.378 -129.883 0 
-213.873 -133.19 0 
-215.776 -114.714 0 
-243.818 -98.7105 0 
-246.836 -122.245 0 
-151.041 99.4993 0 
-211.937 -141.414 0 
-203.79 -149.638 0 
-209.281 -125.68 0 
-213.241 -148.18 0 
-182.202 -158.318 0 
-231.633 -175.936 0 
-180.261 119.386 0 
-219.686 -123.332 0 
-218.519 -113.643 0 
-250.223 -169.451 0 
-258.793 -140.607 0 
-218.221 -127.499 0 
-215.936 -137.094 0 
-221.874 -113.035 0 
-202.016 -146.929 0 
-217.735 -138.163 0 
-229.683 -173.018 0 
-273.855 -115.239 0 
-218.82 -150.453 0 
-237.825 -126.111 0 
-255.194 -140.288 0 
-165.52 34.1163 0 
-243.865 -106.549 0 
-181.253 -134.776 0 
-222.312 -124.635 0 
-179.046 -132.285 0 
-199.114 -175.557 0 
-165.103 -59.9137 0 
-221.617 -115.071 0 
-231.987 -137.605 0 
-253.301 -130.796 0 
-239.122 -131.72 0 
-215.148 -163.828 0 
-186.159 -150.611 0 
-204.998 -15.5528 0 
-212.654 -150.671 0 
-242.679 -144.608 0 
-216.536 -169.035 0 
-208.355 -136.859 0 
-171.086 -140.877 0 
-229.199 -133.451 0 
-200.278 -130.127 0 
-193.996 -83.5108 0 
-184.928 43.4527 0 
-199.915 -155.396 0 
-223.168 -136.478 0 
-185.152 -113.495 0 
-242.687 -128.608 0 
-233.162 -120.434 0 
-188.854 -118.008 0 
-238.535 -118.808 0 
-223.767 -137.661 0 
-217.755 -134.428 0 
-209.808 -100.466 0 
-233.553 -146.58 0 
-222.882 -231.528 0 
-215.175 -136.628 0 
-195.834 -110.361 0 
-223.252 -112.512 0 
-224.354 -105.213 0 
-251.557 -135.796 0 
-235.932 -104.014 0 
-269.122 -138.631 0 
-215.917 -125.094 0 
-190.321 -117.756 0 
-183.471 -155.264 0 
-185.024 -98.0055 0 
-181.028 -134.056 0 
-266.874 -232.988 0 
-166.772 -84.6757 0 
-176.643 -133.79 0 
-202.865 -92.4558 0 
-208.68 25.4807 0 
-199.634 -137.765 0 
-201.498 -133.931 0 
-172.449 -132.866 0 
-192.818 7.29759 0 
-206.375 -105.433 0 
-215.277 -132.374 0 
-237.478 -139.364 0 
-199.905 -232.399 0 
-275.37 -124.323 0 
-258.45 -99.5883 0 
-182.271 -139.56 0 
-224.895 -120.715 0 
-216.148 -23.6394 0 
-170.751 -150.805 0 