<VTKFile type="UnstructuredGrid" version="0.1" byte_order="BigEndian">
  <UnstructuredGrid>
        <Piece NumberOfPoints="8000" NumberOfCells="0" Time= "0.025">      <Points>
        <DataArray name="Position" type="Float32"  NumberOfComponents= "3"  format="ascii">

114.924 14.7853 0 
114.74 14.7787 0 
114.705 16.4136 0 
114.724 17.2599 0 
114.753 16.7163 0 
114.722 15.5616 0 
114.703 15.3971 0 
114.876 16.5268 0 
114.77 16.7742 0 
114.881 14.9968 0 
114.718 15.4428 0 
114.838 15.2362 0 
114.762 15.5084 0 
114.708 16.4014 0 
114.801 15.0236 0 
114.883 16.8645 0 
114.769 16.8956 0 
114.758 17.2282 0 
114.786 17.0908 0 
114.843 14.9938 0 
114.705 15.2267 0 
114.864 16.3657 0 
114.797 16.424 0 
114.81 16.3575 0 
114.847 16.5695 0 
114.831 14.9902 0 
114.73 16.8428 0 
114.821 16.3053 0 
114.805 17.2206 0 
114.784 16.3066 0 
114.778 17.1077 0 
114.864 15.6284 0 
114.879 16.3918 0 
114.775 16.2193 0 
114.707 16.4589 0 
114.733 16.4554 0 
114.878 15.6558 0 
114.775 16.5724 0 
114.84 14.9886 0 
114.868 16.7431 0 
114.829 16.5647 0 
114.819 16.6841 0 
114.848 17.1223 0 
114.763 15.2034 0 
114.794 16.5643 0 
114.751 15.5665 0 
114.783 17.4622 0 
114.85 18.8415 0 
114.722 17.6151 0 
114.775 17.4321 0 
114.83 17.7186 0 
114.749 17.505 0 
114.762 19.2177 0 
114.872 18.8282 0 
114.833 18.9299 0 
114.875 18.8561 0 
114.781 18.0273 0 
114.82 19.1041 0 
114.848 17.5639 0 
114.858 19.0679 0 
114.774 19.2527 0 
114.887 18.7491 0 
116.735 14.7219 0 
116.535 14.8011 0 
116.661 14.6947 0 
116.684 14.8546 0 
117.358 14.781 0 
115.818 14.6908 0 
116.566 14.7683 0 
115.84 14.801 0 
116.746 14.7476 0 
115.612 14.809 0 
115.38 14.8524 0 
115.753 14.8489 0 
115.911 14.7985 0 
116.941 14.8545 0 
117.263 14.7487 0 
114.965 14.8534 0 
115.755 14.749 0 
116.574 14.7805 0 
117.035 14.7671 0 
116.484 14.8581 0 
115.684 14.7385 0 
115.045 14.877 0 
115.631 14.7784 0 
115.856 14.775 0 
116.834 14.8818 0 
115.907 14.8327 0 
117.021 14.8042 0 
116.525 14.748 0 
116.572 14.8351 0 
117.114 14.7806 0 
116.483 14.8606 0 
115.417 14.7136 0 
117.067 14.7882 0 
116.893 14.7938 0 
116.743 14.7234 0 
117.371 14.7719 0 
117.372 14.8826 0 
117.082 16.3232 0 
116.103 16.5958 0 
116.432 16.5781 0 
116.524 15.938 0 
114.965 16.6117 0 
116.643 15.4335 0 
115.962 16.328 0 
116.387 16.3836 0 
116.065 16.9002 0 
116.932 15.6057 0 
116.097 15.302 0 
115.986 16.6825 0 
116.602 16.0737 0 
116.489 15.2755 0 
115.016 16.6403 0 
115.178 16.6008 0 
116.1 14.9 0 
117.264 16.3567 0 
116.505 17.0677 0 
116.429 16.572 0 
116.515 16.9258 0 
116.663 15.2187 0 
117.316 15.4187 0 
117.244 15.6249 0 
117.088 15.6858 0 
116.453 15.5131 0 
116.322 16.3694 0 
116.3 16.5406 0 
116.297 14.9636 0 
116.58 15.6575 0 
116.933 15.0977 0 
116.217 16.5087 0 
116.806 15.4483 0 
114.976 16.6783 0 
116.551 16.8927 0 
115.148 16.4845 0 
115.808 16.503 0 
114.908 16.961 0 
116.322 16.6142 0 
116.678 15.8857 0 
117.228 15.7584 0 
116.478 15.3176 0 
116.685 17.3011 0 
117.124 16.3553 0 
117.055 17.0839 0 
116.065 15.1893 0 
116.253 16.6175 0 
116.14 15.5476 0 
116.685 15.9682 0 
116.31 17.0035 0 
116.712 16.5195 0 
116.486 15.8755 0 
116.138 14.9082 0 
116.021 16.466 0 
116.055 15.4518 0 
117.218 16.3524 0 
116.482 16.0297 0 
114.893 15.1625 0 
116.255 16.6397 0 
116.009 15.293 0 
115.095 16.5186 0 
114.939 16.6883 0 
116.51 17.2377 0 
116.204 17.1584 0 
116.909 15.2279 0 
116.472 16.9199 0 
116.634 16.6968 0 
117.309 15.6457 0 
116.109 16.6579 0 
115.475 16.5673 0 
114.963 15.2894 0 
117.223 15.4728 0 
116.483 15.7801 0 
114.964 16.7171 0 
114.946 17.2584 0 
117.124 17.2389 0 
116.842 16.7557 0 
117.012 15.4346 0 
116.543 15.2211 0 
116.174 16.6544 0 
116.672 15.8411 0 
116.684 16.2962 0 
117.184 15.4585 0 
116.449 15.5348 0 
116.449 16.601 0 
116.471 15.6894 0 
114.892 15.4593 0 
116.232 16.4468 0 
116.672 14.95 0 
116.13 16.7987 0 
116.291 16.6656 0 
116.247 17.0758 0 
117.169 15.5784 0 
116.552 16.1054 0 
116.21 16.5731 0 
116.689 16.1356 0 
116.993 14.9145 0 
116.086 16.794 0 
117.362 15.3996 0 
116.912 15.4876 0 
115.954 16.8537 0 
116.906 16.6544 0 
116.167 17.1025 0 
116.554 15.1864 0 
117.208 14.9246 0 
117.211 16.4048 0 
116.012 16.6806 0 
115.952 16.3161 0 
117.014 16.4877 0 
114.904 15.5322 0 
115.867 16.5231 0 
116.477 15.0681 0 
116.942 17.1064 0 
116.175 16.3449 0 
116.018 16.6325 0 
116.902 16.6771 0 
117.012 15.2174 0 
117.061 15.2398 0 
116.49 15.9451 0 
116.524 16.0039 0 
116.661 15.787 0 
117.344 16.9513 0 
116.341 16.518 0 
117.13 15.4215 0 
116.48 14.9727 0 
116.325 16.3138 0 
115.919 16.7798 0 
115.115 15.1281 0 
116.671 16.0491 0 
116.51 15.863 0 
117.347 16.4363 0 
117.214 14.932 0 
115.206 15.526 0 
116.252 16.498 0 
116.415 16.8756 0 
116.808 16.6086 0 
116.653 16.9267 0 
116.563 16.1994 0 
116.761 16.7799 0 
116.19 16.9964 0 
116.927 14.99 0 
116.249 16.3499 0 
116.961 14.9834 0 
116.491 14.9257 0 
116.07 15.1893 0 
116.837 15.7144 0 
116.03 16.5686 0 
115.808 16.6532 0 
116.249 15.2638 0 
116.849 15.3938 0 
117.24 16.3324 0 
116.281 16.3307 0 
116.649 15.8796 0 
116.185 16.9926 0 
116.995 17.0369 0 
117.372 15.5291 0 
116.286 17.1146 0 
116.18 15.0696 0 
116.189 17.0064 0 
116.886 16.9732 0 
117.005 15.5974 0 
115.2 16.6548 0 
116.622 15.9028 0 
116.339 17.1657 0 
116.342 16.38 0 
116.943 17.0014 0 
115.813 17.0426 0 
116.701 16.1547 0 
115.02 16.6693 0 
116.632 16.0022 0 
117.104 16.6868 0 
117.159 15.4068 0 
115.645 16.8574 0 
116.861 16.8993 0 
116.83 16.5463 0 
116.131 16.6572 0 
116.584 16.266 0 
116.857 15.6382 0 
116.523 16.662 0 
115.802 17.3524 0 
115.975 15.1313 0 
117.15 16.3155 0 
115.942 15.0597 0 
115.855 16.693 0 
115.815 16.8753 0 
116.597 16.9922 0 
116.948 15.8679 0 
116.495 16.0265 0 
116.105 16.6569 0 
117.065 15.0576 0 
116.779 17.2521 0 
115.048 16.5523 0 
115.807 17.1629 0 
115.851 16.756 0 
116.126 16.5033 0 
116.911 16.5766 0 
115.978 16.8121 0 
116.529 17.1369 0 
116.623 15.9002 0 
116.086 15.3714 0 
116.507 16.0126 0 
116.56 15.0435 0 
116.465 16.4806 0 
116.252 15.3596 0 
116.73 16.604 0 
117.274 17.0003 0 
116.032 17.1484 0 
115.742 16.6451 0 
116.783 16.8476 0 
116.582 16.7203 0 
115.126 15.4924 0 
116.468 17.2512 0 
116.628 15.3972 0 
115.278 16.5682 0 
117.129 16.9388 0 
116.156 16.959 0 
116.702 16.076 0 
115.595 16.6836 0 
116.386 16.8443 0 
116.925 17.0775 0 
114.968 16.8171 0 
116.302 16.6156 0 
115.785 16.5379 0 
116.299 16.3995 0 
117.156 16.4074 0 
116.931 16.5542 0 
114.89 15.6459 0 
116.482 15.8207 0 
116.234 15.2026 0 
116.229 17.0796 0 
116.304 15.4754 0 
116.566 17.0027 0 
117.339 16.9609 0 
116.055 16.8174 0 
116.636 16.1876 0 
116.879 16.4254 0 
115.253 16.6308 0 
116.283 16.3693 0 
116.445 16.9328 0 
117.015 16.8088 0 
115.115 16.7019 0 
116.955 16.4969 0 
117.075 15.2258 0 
115.622 14.904 0 
116.582 16.1734 0 
116.577 15.1879 0 
116.79 16.6861 0 
117.339 17.0805 0 
117.318 15.5391 0 
115.885 16.6136 0 
117.328 16.5762 0 
116.498 15.2345 0 
117.059 15.1758 0 
115.157 15.3205 0 
116.188 16.9784 0 
117.07 15.2954 0 
117.132 15.3839 0 
116.527 15.8436 0 
115.297 16.517 0 
116.22 17.0811 0 
116.479 17.1808 0 
115.885 17.3027 0 
117.365 17.3348 0 
115.997 16.6854 0 
117.08 17.3437 0 
116.044 15.0847 0 
117.02 16.5271 0 
116.264 16.5839 0 
116.541 15.487 0 
115.016 15.5977 0 
116.741 16.6353 0 
116.517 16.1732 0 
116.927 15.1394 0 
116.215 17.0287 0 
116.854 16.574 0 
115.753 16.5934 0 
116.743 16.856 0 
116.661 16.3183 0 
116.436 15.3411 0 
114.89 16.5483 0 
116.478 15.3348 0 
116.253 15.3611 0 
116.085 15.6231 0 
116.804 15.137 0 
116.583 16.7653 0 
116.641 16.3505 0 
116.093 14.9835 0 
116.419 16.3082 0 
116.064 16.861 0 
116.518 15.2342 0 
116.482 15.0785 0 
115.844 16.8406 0 
114.913 15.5529 0 
116.133 16.667 0 
116.841 16.3891 0 
117.229 16.9182 0 
115.834 16.4824 0 
116.534 16.2715 0 
116.265 15.2677 0 
115.071 16.8795 0 
117.236 16.302 0 
116.259 16.5319 0 
116.122 16.976 0 
116.519 16.803 0 
116.635 15.9724 0 
115.989 15.2145 0 
116.297 16.4542 0 
116.252 16.6004 0 
115.797 16.8392 0 
117.004 16.8328 0 
116.635 14.9965 0 
116.168 16.5216 0 
116.71 16.5468 0 
116.029 15.4934 0 
117.127 15.2566 0 
117.112 16.4075 0 
115.497 16.5282 0 
116.675 15.8203 0 
116.316 15.5952 0 
116.518 16.0186 0 
116.79 16.6638 0 
115.893 16.704 0 
115.794 17.0488 0 
117.206 16.0896 0 
116.393 16.8354 0 
116.425 15.1565 0 
117.087 15.5278 0 
116.54 15.6323 0 
117.374 15.3124 0 
116.683 16.0289 0 
116.633 15.9282 0 
115.889 16.6168 0 
116.446 16.3163 0 
116.546 16.2 0 
116.863 17.0112 0 
116.449 16.9318 0 
117.094 15.6094 0 
116.72 16.6034 0 
114.898 16.4275 0 
115.936 17.2643 0 
116.656 16.8183 0 
116.573 16.8716 0 
117.313 14.9303 0 
116.545 14.9059 0 
116.483 16.4499 0 
116.396 16.3072 0 
116.498 15.2528 0 
117.339 15.4099 0 
116.636 15.7518 0 
115.219 15.527 0 
116.295 16.3802 0 
116.58 16.137 0 
116.179 16.4984 0 
116.353 17.1866 0 
115.169 15.5464 0 
116.846 16.4334 0 
116.674 17.2334 0 
116.105 16.9648 0 
115.958 16.8151 0 
116.482 16.4219 0 
116.685 16.657 0 
115.887 17.3822 0 
116.872 16.5782 0 
117.149 15.6725 0 
116.061 16.8796 0 
114.98 16.4431 0 
116.216 16.6267 0 
116.541 16.9663 0 
116.509 15.0102 0 
116.307 14.9704 0 
116.274 16.5126 0 
116.985 15.6814 0 
115.129 15.4726 0 
117.033 17.0254 0 
116.23 15.2406 0 
115.425 16.5764 0 
116.11 16.7285 0 
117.37 15.6787 0 
115.21 16.3714 0 
116.626 14.9389 0 
117.297 16.5224 0 
116.146 16.9036 0 
116.872 15.0895 0 
116.068 17.0034 0 
115.055 15.1458 0 
116.974 17.1247 0 
115.255 15.3836 0 
116.713 15.6422 0 
116.562 16.7781 0 
116.154 16.9198 0 
116.828 15.4435 0 
116.062 16.9314 0 
117.333 16.5976 0 
117.017 16.6746 0 
116.489 15.7726 0 
116.491 16.2763 0 
115.695 17.1496 0 
116.519 16.3973 0 
115.633 16.6309 0 
116.675 14.9011 0 
116.618 16.2308 0 
116.582 16.4979 0 
116.654 15.4094 0 
117.083 15.3656 0 
116.711 16.994 0 
114.897 14.9779 0 
117.122 16.5763 0 
116.789 17.384 0 
116.256 17.1179 0 
117.229 16.6266 0 
116.324 16.5877 0 
116.44 15.6488 0 
116.685 16.8804 0 
115.19 15.3199 0 
115.96 17.0337 0 
116.027 16.7913 0 
116.63 15.8326 0 
116.862 16.4795 0 
116.505 16.136 0 
[...]
      <PointData Vectors="vector">
        <DataArray type="Float32" Name="Velocity" NumberOfComponents="3" format="ascii">

-16.9479 -24.9778 0 
-25 -25 0 
-24.9574 -24.9604 0 
-12.3075 -24.9952 0 
-19.0188 -24.9948 0 
-24.9908 -24.9934 0 
-25 -25 0 
-23.1667 -24.9941 0 
-24.6198 15.7268 0 
-22.3055 -19.1518 0 
-24.9669 2.1176 0 
-24.986 -24.913 0 
-24.9832 -24.9905 0 
-24.4651 -0.566004 0 
-25 -25 0 
-19.9804 -12.9982 0 
-25 -25 0 
-24.9823 -21.098 0 
-25 -24.9941 0 
-24.3499 -24.9679 0 
-25 -24.9966 0 
-24.9769 15.1391 0 
-25 -25 0 
-24.9571 -24.9812 0 
-24.8261 -11.1902 0 
-25 -25 0 
-25 -24.9984 0 
-25 -25 0 
-25 -25 0 
-24.7825 -23.1382 0 
-22.4822 -24.9931 0 
-24.984 -24.9293 0 
-24.9814 -22.0859 0 
-24.9804 -24.9801 0 
-24.9836 -24.9529 0 
-24.9887 -24.9942 0 
-24.9619 -24.9825 0 
-24.9774 11.1089 0 
-24.9855 -24.9397 0 
-25 -14.4272 0 
-24.981 10.1442 0 
-24.9793 10.4256 0 
-24.3607 -2.60726 0 
-24.9765 15.1256 0 
-25 -25 0 
-24.8483 -13.5292 0 
-24.9802 10.912 0 
-24.9749 10.9652 0 
-24.9761 -24.9746 0 
-24.9809 10.4229 0 
-24.9861 13.7667 0 
-24.9838 -24.9617 0 
-25 -14.277 0 
-24.9762 11.0839 0 
-25 -20.759 0 
-24.9836 10.7336 0 
-24.9571 0.938812 0 
-24.4873 -24.2294 0 
-25 -12.9601 0 
-24.9861 -24.9123 0 
-24.944 5.46629 0 
-23.1378 -2.51286 0 
-24.9298 -18.03 0 
-24.9831 13.1517 0 
-24.4451 -2.77889 0 
-24.2258 -0.230782 0 
-24.9794 -24.9598 0 
-25 -24.9996 0 
-25 -25 0 
-24.9434 5.75402 0 
-24.7221 -21.7922 0 
-25 -24.9979 0 
-24.9344 10.4896 0 
-24.9562 -24.2118 0 
-24.9207 -24.979 0 
-24.9601 -24.9842 0 
-24.9254 24.9588 0 
-24.9414 10.8662 0 
-24.9389 11.6804 0 
-24.9402 10.4956 0 
-24.9145 -9.99905 0 
-24.9458 24.9435 0 
-24.9291 -24.9731 0 
-24.9425 24.9496 0 
-24.9294 24.9605 0 
-24.9564 19.1321 0 
13.2143 -24.9384 0 
0.0498363 -24.9117 0 
3.92448 -25 0 
-20.0369 -24.8685 0 
16.3834 -25 0 
11.2934 -24.9154 0 
25 -25 0 
-24.9732 -24.923 0 
17.9923 -25 0 
6.07879 -24.8514 0 
-16.6949 -25 0 
6.4698 -24.7539 0 
-24.8433 -24.921 0 
-22.8011 -24.8778 0 
-24.9196 -24.9101 0 
0.71848 -25 0 
-9.38435 -25 0 
-3.82129 -25 0 
-16.9275 -21.8312 0 
-19.086 -25 0 
-24.9256 -24.9143 0 
-24.853 -24.9091 0 
-24.837 -24.8989 0 
-5.89551 -24.4173 0 
-24.8831 -24.9431 0 
-24.9401 -24.9303 0 
9.14112 -25 0 
-19.7691 -24.873 0 
-24.8657 -24.9292 0 
-9.26215 -24.5916 0 
-12.0324 -25 0 
-22.0859 -25 0 
-7.4625 -25 0 
-8.53423 -25 0 
-20.9585 -25 0 
25 -25 0 
-24.7918 -24.8471 0 
-24.9811 -24.9333 0 
0.0251673 -24.3256 0 
-6.22775 -25 0 
-24.9732 -24.9335 0 
6.15698 -24.665 0 
-24.8614 -24.9284 0 
0.949675 -24.9288 0 
-24.9818 -24.9452 0 
25 -25 0 
8.55487 -24.7197 0 
-24.8789 -24.9226 0 
20.0024 -24.9991 0 
-8.36839 -24.5939 0 
5.51768 -24.718 0 
17.3181 -25 0 
-24.8618 -24.923 0 
-22.5832 -25 0 
-1.21007 -24.4276 0 
-24.9194 -24.9087 0 
11.5598 -24.973 0 
21.5384 -24.913 0 
-24.9745 -24.9239 0 
-24.9756 -24.9298 0 
-12.4824 -25 0 
-24.986 0.00160393 0 
-11.0014 -24.7352 0 
7.72022 2.25545 0 
-19.8717 -3.41173 0 
-0.0489472 -18.9677 0 
24.9846 25 0 
25 20.8496 0 
-14.4387 -24.8723 0 
-24.9909 -19.9992 0 
25 -25 0 
-16.4477 -24.7224 0 
-21.1544 -4.39072 0 
-1.13751 -19.9423 0 
-21.1035 -1.75383 0 
-24.7287 21.5731 0 
-24.9603 0.00533539 0 
-23.8987 -16.6131 0 
8.5906 3.31109 0 
-10.6167 -24.7717 0 
15.0718 -22.4388 0 
-24.9979 -6.57863 0 
-24.9986 14.9144 0 
-24.9874 -21.665 0 
25 -24.9727 0 
-0.966755 -2.77239 0 
-3.50456 -7.69963 0 
-20.818 12.0174 0 
-24.8233 -24.7505 0 
-3.24907 -3.93706 0 
-24.8449 -19.9621 0 
-21.0775 -15.0177 0 
-17.7546 -21.8243 0 
-8.82061 -20.0428 0 
-19.2929 -24.7785 0 
1.9277 -18.0378 0 
-24.9872 -24.9226 0 
-2.30659 -19.2832 0 
17.1019 -20.2857 0 
-24.9807 0.0021428 0 
-24.9984 -24.9934 0 
25 -25 0 
16.0447 19.4383 0 
25 -25 0 
-24.9463 -7.74522 0 
-23.6116 -24.2729 0 
-24.9979 16.6152 0 
-15.5644 8.09984 0 
-24.997 -16.0498 0 
-17.7276 -18.4958 0 
25 -25 0 
-24.9689 0.00394009 0 
-11.3133 -6.86774 0 
3.52729 -2.51153 0 
25 -25 0 
-24.9929 24.9934 0 
-18.7996 -22.0381 0 
-24.1223 -24.9956 0 
12.9259 -25 0 
-24.8524 -24.857 0 
-24.7232 -7.20562 0 
-23.0427 -15.0096 0 
-24.9933 -24.942 0 
14.7586 13.6669 0 
-16.2855 -10.0253 0 
-24.9976 -8.29937 0 
-14.6337 -7.22991 0 
-24.9973 -24.9859 0 
-24.9162 -24.8162 0 
-24.9725 -19.9808 0 
0.815381 -22.2878 0 
22.6407 -25 0 
12.8366 9.67487 0 
2.30354 -18.0503 0 
-24.8494 2.67531 0 
-24.9959 -24.9767 0 
-24.9981 -7.01835 0 
-10.1974 -6.41003 0 
15.016 10.0334 0 
-12.0647 -9.81882 0 
-24.9956 -24.9784 0 
-0.405548 -2.81262 0 
-24.984 -24.9058 0 
5.58094 -24.7595 0 
-6.69454 -24.6692 0 
10.8077 9.3125 0 
-2.07309 -25 0 
-24.9989 9.12312 0 
-20.1763 12.9083 0 
-16.8935 -24.8375 0 
-24.8552 -2.19413 0 
-19.6702 -24.6543 0 
-24.9974 -14.3398 0 
-24.9562 -19.9854 0 
25 -24.8797 0 
-24.9356 -10.5928 0 
23.0797 -25 0 
22.7611 -24.6962 0 
-24.9641 0.0039487 0 
5.30045 -3.59537 0 
24.9858 25 0 
-24.9899 15.8154 0 
-8.54568 -21.6372 0 
22.2324 -25 0 
-24.9982 -24.9935 0 
24.9819 25 0 
21.1092 18.5882 0 
-24.9034 -12.1449 0 
-24.8711 -23.7883 0 
-24.8916 -21.4531 0 
-18.0047 14.8467 0 
-19.9042 8.71498 0 
-24.9983 -24.9992 0 
11.8522 -9.36609 0 
-23.2724 -24.996 0 
20.1607 20.2537 0 
-24.9972 -19.3184 0 
23.7131 24.6838 0 
10.1894 -24.8578 0 
-25 -25 0 
16.2816 2.30425 0 
-19.8812 15.4059 0 
-24.2639 14.669 0 
-25 -25 0 
-17.8211 -24.1938 0 
-24.4546 -12.2007 0 
-24.9955 13.6088 0 
-24.8655 -14.9923 0 
-16.1797 -22.1377 0 
-24.8685 -14.9597 0 
0.0641318 -25 0 
24.3439 25 0 
25 -25 0 
-24.9824 -19.9672 0 
-12.3585 -24.7505 0 
-6.87126 -24.8334 0 
25 -25 0 
-24.8429 -21.383 0 
-24.9676 0.00444798 0 
-5.93575 -6.62602 0 
-22.9959 9.69599 0 
24.8637 -25 0 
-24.9987 -24.9954 0 
-24.9958 -24.9693 0 
-20.0124 -24.3774 0 
25 -25 0 
-24.9984 -24.9993 0 
2.52578 -25 0 
-24.8881 -24.899 0 
-24.9915 -20.0936 0 
-24.6264 12.3441 0 
-21.5242 13.4479 0 
-23.557 -21.6064 0 
-0.0039677 -1.29405 0 
-24.982 -24.9927 0 
25 -24.8282 0 
-24.7175 -22.7011 0 
-24.8622 -1.26028 0 
-23.616 10.3679 0 
6.36596 -20.9125 0 
-24.7992 -15.6242 0 
-24.9982 -10.9736 0 
25 -24.9261 0 
-24.811 -24.8252 0 
-24.9963 19.7694 0 
14.9531 15.422 0 
24.0583 20.0518 0 
-24.984 -19.9724 0 
-6.67519 -24.3242 0 
15.1557 -25 0 
25 -25 0 
-24.9807 0.00244647 0 
25 -25 0 
4.66587 -4.22475 0 
-24.9881 -24.9096 0 
25 -24.8965 0 
-24.887 -24.9444 0 
-24.9911 -20.7639 0 
-19.2022 17.2285 0 
14.6174 12.8799 0 
-24.8464 -22.9002 0 
-24.9961 -21.2511 0 
-24.9858 16.8112 0 
25 -24.9008 0 
7.25968 -24.8727 0 
4.21243 -8.52509 0 
-24.9884 -4.40286 0 
0.458253 -24.7861 0 
-6.8278 -24.7886 0 
-21.5662 -5.69345 0 
25 -25 0 
-2.5663 -9.85063 0 
3.00891 -23.4595 0 
18.7716 14.2354 0 
25 -25 0 
-5.47994 -24.999 0 
-24.9974 19.7039 0 
-24.998 -24.9951 0 
23.6574 -25 0 
-1.57028 -7.44369 0 
-24.8069 -24.9097 0 
-17.3882 -15.025 0 
-25 -25 0 
0.604697 -24.9924 0 
-24.7824 16.9574 0 
-18.0494 -3.64165 0 
-24.999 -24.997 0 
13.0474 -24.9963 0 
13.1461 -15.4962 0 
-5.6426 -24.8795 0 
-24.3205 -19.8208 0 
-24.9985 -24.9946 0 
-21.5746 -24.5795 0 
-19.9256 -23.0235 0 
-24.9877 -24.9168 0 
-0.970479 -2.45992 0 
-24.9818 11.6055 0 
-24.9934 18.9908 0 
-14.3829 9.54572 0 
25 -25 0 
8.38911 -25 0 
25 -25 0 
-1.49707 -24.9947 0 
-22.0486 -24.9959 0 
-19.0613 -24.6539 0 
-23.4865 -4.99204 0 
-24.9935 -2.4701 0 
-24.7448 21.8653 0 
-2.76167 -4.33767 0 
-24.6185 -9.2788 0 
-24.8599 -24.1127 0 
-22.6741 -24.8872 0 
-24.988 -3.02834 0 
-24.8895 -19.8726 0 
20.0005 -21.0139 0 
-3.38224 -24.9942 0 
-20.8263 -18.3588 0 
-2.76946 -22.624 0 
-24.9949 -24.9908 0 
-24.9312 -14.5926 0 
-24.9968 -24.9921 0 
-24.9984 10.9689 0 
-17.9501 -24.7663 0 
-24.7376 -11.598 0 
-24.8895 -24.9732 0 
-19.113 -11.87 0 
-24.86 -21.4225 0 
-25 -25 0 
15.651 -25 0 
-24.9367 -22.5683 0 
-24.9925 -10.4082 0 
0.975458 -8.86349 0 
-11.9363 -13.5747 0 
23.296 -25 0 
-24.928 -19.4967 0 
-19.821 -25 0 
-23.9344 -25 0 
-24.993 -24.9901 0 
9.8878 -0.360202 0 
-24.998 -24.9992 0 
25 -25 0 
-24.9901 21.7973 0 
-2.00594 -6.64397 0 
-20.577 -0.570173 0 
-25 -22.4325 0 
-24.997 18.4037 0 
-4.12259 -19.7522 0 
-24.8223 -24.753 0 
13.2061 -25 0 
-24.9917 -4.82323 0 
-9.26974 -24.866 0 
-24.8238 -24.9221 0 
20.0402 11.6198 0 
25 -24.9728 0 
-2.32101 -19.4094 0 
25 -25 0 
25 -25 0 
-24.8005 -22.3711 0 
-20.1701 -15.0257 0 
-23.4367 -18.2367 0 
25 21.389 0 
20.4498 -24.8429 0 
2.0411 -21.6393 0 
22.3615 -25 0 
25 -24.9084 0 
-24.9964 -21.0507 0 
8.26017 -1.20514 0 
-24.9952 -1.09305 0 
-24.9987 -24.997 0 
-1.23762 -13.6894 0 
-10.8352 -20.1418 0 
25 -25 0 
-21.993 -24.93 0 
-24.9715 0.00417133 0 
20.008 20.2146 0 
-10.2301 -24.9984 0 
-19.8708 -14.041 0 
3.00223 -20.4055 0 
25 -25 0 
-22.9735 -21.7557 0 
20.0972 19.835 0 
25 -24.9163 0 
-24.8765 -24.4026 0 
-24.9891 -24.9978 0 
-13.478 -24.0729 0 
-24.9964 6.44993 0 
25 -25 0 
-24.8983 -10.5407 0 
-24.9851 11.0175 0 
-6.20076 -13.7863 0 
5.5296 -9.90102 0 
25 -25 0 
-17.2385 -13.3505 0 
-24.9727 -14.5467 0 
-2.28413 -24.8057 0 
-24.9876 -24.9115 0 
25 -24.8384 0 
-24.9822 -24.4037 0 
-19.4982 -23.1664 0 
25 -25 0 
-24.9948 -20.1567 0 
8.12816 -24.7611 0 
-24.9987 2.13278 0 
13.4622 -6.43734 0 
-22.097 2.87978 0 
-17.4151 -24.7648 0 
25 20.8714 0 
-12.5174 -22.9688 0 
-24.9091 -24.916 0 
-24.6394 -9.20911 0 
-24.9917 -20.6454 0 
-24.9922 10.4179 0 
-17.1355 -25 0 
4.99676 -24.3046 0 
-24.9217 -15.0227 0 
14.8073 -19.6804 0 
22.6907 17.6814 0 
25 21.9325 0 
-17.2746 -11.6954 0 
-24.9974 -14.0487 0 
-22.7843 11.4585 0 
-25 -25 0 
-1.63575 -3.58017 0 
-20.6481 -10.1291 0 
-5.08491 -10.5751 0 
-24.0843 -22.2307 0 
-25 -25 0 
-24.9944 -1.77787 0 
-24.7497 -21.0271 0 
-16.6719 -24.9912 0 
25 -24.8994 0 
25 20.2691 0 
-24.927 -14.9755 0 
-21.5013 -25 0 
-24.9943 14.8061 0 
14.2305 -25 0 
-24.9895 -23.9956 0 
13.2998 -24.8348 0 
16.7499 19.0487 0 
-24.9919 -24.9821 0 
-24.9314 -14.9997 0 
25 -25 0 
-17.0838 -24.4002 0 
-24.986 -20.2134 0 
-25 -25 0 
-24.9988 -24.9955 0 
25 -25 0 
-9.77257 -22.0458 0 
-24.9959 -24.9981 0 
-18.773 -24.7605 0 
-24.9929 -24.9301 0 
-25 21.0465 0 
-24.8977 -9.6418 0 
25 -24.8323 0 
-24.8576 -24.9043 0 
24.9771 -24.925 0 
-25 -25 0 
-24.9981 -24.9924 0 
-25 -25 0 
-24.835 -14.7457 0 
-17.2397 -15.0224 0 
21.1763 -24.8638 0 
-24.8565 -19.964 0 
25 -24.8281 0 
-24.709 -13.8235 0 
-24.9112 -12.0521 0 
-17.8158 11.1829 0 
-9.79445 -16.1393 0 
25 -24.884 0 
25 20.2444 0 
-8.12279 -8.08126 0 
-22.3014 -13.2405 0 
24.5732 10.3262 0 
6.65946 -22.3182 0 
-24.9913 -24.9203 0 
-24.9786 -23.958 0 
-24.8173 -24.9045 0 
-24.8941 -9.72259 0 
-24.9966 -23.5333 0 
-2.00835 -25 0 
-24.7557 -14.1738 0 
12.7689 13.9462 0 
-8.38557 -9.93936 0 
-24.8319 -14.9781 0 
-25 -25 0 
25 -24.8403 0 
-18.8402 -24.6562 0 
-21.9745 -6.68697 0 
9.95106 -19.0449 0 
-24.9931 -4.08525 0 
5.0601 -14.9708 0 
25 -25 0 
2.73533 -24.9287 0 
-6.06361 -22.9983 0 
24.4381 11.4181 0 
-24.9847 -24.9459 0 
-24.9976 -11.9407 0 
-9.64835 -24.6579 0 
21.0814 -25 0 
-24.8321 -23.7771 0 
-24.9861 -24.9305 0 
14.4299 17.1132 0 
-12.8604 -24.7211 0 
23.7501 24.2556 0 
25 -25 0 
-24.7566 16.6953 0 
-24.9982 2.07805 0 
-24.4178 -7.22909 0 
25 -24.8516 0 
22.9185 12.7847 0 
-24.7852 -24.8407 0 
25 -24.9267 0 
8.04523 -17.2439 0 
24.9841 25 0 
-24.9455 -19.9862 0 
-24.9984 -4.67183 0 
-10.5571 -5.28404 0 
-25 -25 0 
-24.9857 -20.0634 0 
-21.5179 -25 0 
22.0657 -25 0 
20.0215 -23.9369 0 
-20.7268 0.0361107 0 
-0.591445 -22.0553 0 
24.0586 -25 0 
-24.7733 12.2645 0 
-24.995 22.5867 0 
-24.4454 19.2884 0 
25 -24.9063 0 
15.5371 -25 0 
7.83947 -24.8771 0 
-11.9487 -12.0943 0 
-0.719345 -24.7765 0 
-24.994 -24.9836 0 
-24.9987 14.2495 0 
-24.9979 -24.9901 0 
4.55731 -1.1856 0 
25 -24.875 0 
25 -25 0 
25 -25 0 
-24.8132 -24.9014 0 
5.70703 -0.951015 0 
-19.7074 -9.02269 0 
25 -24.9696 0 
24.9603 -24.9284 0 
-21.2278 -3.29523 0 
-24.7657 1.96396 0 
25 -24.9318 0 
-16.0037 -7.81295 0 
-24.9121 0.236511 0 
-24.7179 -22.2877 0 
25 -24.9663 0 
-24.9546 0.0599898 0 
-4.80623 -24.9442 0 
-24.9828 -19.9688 0 
11.349 8.99554 0 
-24.9116 -15.0022 0 
3.43112 -9.97642 0 
24.5356 15.8429 0 
-14.1512 -13.453 0 
24.9862 25 0 
-24.7346 -11.3147 0 
-24.9862 22.2351 0 
24.9824 25 0 
24.9638 -24.9471 0 
-2.66186 -22.8227 0 
19.1123 -20.4066 0 
-24.9985 -24.9937 0 
-0.0921487 -3.92444 0 
-24.9198 -24.9727 0 
-3.64188 -23.7716 0 
-24.9332 24.9878 0 
25 -24.8904 0 
-0.0812844 -2.88067 0 
12.7445 9.80655 0 
-10.6547 -6.4826 0 
24.9833 25 0 
24.6329 16.8088 0 
-25 -25 0 
-23.0458 -24.9963 0 
-24.9972 -24.9894 0 
24.8212 -24.9045 0 
-2.1999 -18.4613 0 
-24.9948 -2.9037 0 
-13.2249 -24.7408 0 
-20.3374 -23.9605 0 
5.29217 -22.9403 0 
-25 -21.5867 0 
-17.8582 16.2487 0 
-23.0578 16.5944 0 
10.4475 -25 0 
-13.7732 -15.9057 0 
-5.69026 20.185 0 
10.0131 24.9587 0 
-24.84 15.266 0 
0.383732 24.9799 0 
4.2655 24.978 0 
-25 -25 0 
-16.0582 -24.9908 0 
-19.8883 24.9349 0 
-24.8431 -0.743364 0 
-24.8986 4.93253 0 
-8.37495 -10.0027 0 
-15.8267 -24.9962 0 
11.7565 24.6215 0 
-24.9828 24.99 0 
9.91302 24.9703 0 
-24.9038 1.69599 0 
-24.9337 19.9678 0 
-24.9863 16.1435 0 
-24.9982 -4.20369 0 
-24.9944 15.8266 0 
-24.9885 13.0679 0 
-24.827 -0.637067 0 
-25 20.0407 0 
9.64672 24.9627 0 
-1.96804 21.5612 0 
24.5164 -24.7426 0 
-17.34 -24.9913 0 
-25 20.0144 0 
-8.0397 -24.9917 0 
-23.3785 -24.9887 0 
-15.9099 -24.8439 0 
-25 -25 0 
-24.9993 -14.202 0 
-24.8859 16.3368 0 
7.85376 10 0 
-15.896 10 0 
9.22469 24.1499 0 
-24.9927 10.0547 0 
-24.9708 24.9719 0 
-24.7632 -24.9964 0 
-24.8779 18.9416 0 
-24.9909 10.168 0 
23.4618 -24.5792 0 
9.34168 -11.3916 0 
-16.3869 -24.988 0 
-24.6027 21.9684 0 
15.5231 24.5597 0 
5.63143 -21.7572 0 
-3.63026 22.6857 0 
6.71507 -10.1925 0 
-9.01932 10 0 
-19.5604 10.0034 0 
-24.9979 -9.5193 0 
1.28825 24.9768 0 
-10.0558 -9.20952 0 
-2.15185 24.9621 0 
-24.839 -0.165605 0 
21.225 -24.3307 0 
20.0144 -23.1955 0 
9.95119 24.9693 0 
-16.2041 -24.9958 0 
9.52678 24.5439 0 
-24.8856 -24.9971 0 
-3.71877 24.4915 0 
-24.8746 4.3542 0 
-16.5786 -7.72245 0 
-16.5916 -10.4548 0 
9.54479 -24.9952 0 
-24.9905 19.0064 0 
9.51013 24.9628 0 
-24.8995 18.6434 0 
-24.9924 10.0573 0 
-12.5019 23.4782 0 
-25 20.0416 0 
-24.9184 10.8116 0 
-24.7003 11.4965 0 
9.95708 -24.9698 0 
-21.4281 2.77137 0 
5.61076 -23.4225 0 
-16.7453 24.9831 0 
-15.2767 10 0 
-24.9909 10.1178 0 
-15.7051 24.9778 0 
7.78217 -10.2818 0 
-7.98027 19.7883 0 
-24.7295 -14.4398 0 
-24.9919 4.86114 0 
-24.9643 -10.1163 0 
-17.1092 -24.9966 0 
-24.8492 -10.5242 0 
-24.9508 16.9696 0 
-24.9914 18.983 0 
24.1387 -24.6164 0 
-19.9429 24.9837 0 
-14.7889 -11.5084 0 
-24.5968 -24.9943 0 
19.205 24.8295 0 
-24.8615 1.43146 0 
-1.53055 24.9794 0 
-2.35424 23.6042 0 
-19.9382 20 0 
-20.9689 10.006 0 
-24.9985 0.402843 0 
-19.9284 19.9999 0 
-16.9083 -10.7011 0 
7.93975 -25 0 
-25 -25 0 
-24.9953 2.04573 0 
-25 20.2988 0 
-20.7547 19.637 0 
-3.12973 -24.9904 0 
-8.39381 -20.3601 0 
-24.9989 3.72886 0 
-14.6955 -16.2551 0 
-24.8806 24.9273 0 
-19.8545 19.9825 0 
-24.9946 7.25553 0 
19.4193 24.7811 0 
20.5326 -25 0 
18.5554 24.7642 0 
-24.6747 24.4219 0 
-19.9376 20 0 
-24.97 24.9731 0 
-24.9899 -0.151131 0 
-24.9099 -8.17904 0 
-20.5601 18.1665 0 
10.0105 24.9621 0 
-24.9238 19.957 0 
-0.859169 23.8211 0 
0.872346 10 0 
10.0072 24.964 0 
-24.9951 -6.35071 0 
-24.8404 0.734744 0 
-24.9875 24.9909 0 
-24.8976 13.3485 0 
-23.1183 -25 0 
17.9411 24.7759 0 
-4.2391 23.6175 0 
-24.995 7.82224 0 
-20.3616 -25 0 
-25 -25 0 
-9.3064 24.9781 0 
-22.456 22.4423 0 
-19.9285 19.9999 0 
-7.25656 24.9795 0 
-7.9061 23.8907 0 
-5.94095 20.1163 0 
-24.9891 24.9938 0 
-24.9193 5.28221 0 
-23.8656 -24.9944 0 
-8.89389 -9.01458 0 
-24.9989 -24.9996 0 
9.8816 24.543 0 
-24.9011 23.3275 0 
-24.5351 -24.9941 0 
-24.9976 0.103649 0 
-19.8707 19.9837 0 
8.73884 24.9743 0 
16.9216 -23.8373 0 
-24.9905 24.9945 0 
-24.9838 19.1797 0 
-15.6649 -8.989 0 
-4.31312 -19.713 0 
-24.954 4.30723 0 
-24.9966 -10.2556 0 
-24.9898 10.1246 0 
-24.9851 9.57254 0 
-20.1385 -25 0 
-24.2854 24.4897 0 
5.14952 -23.5489 0 
-7.17231 24.9798 0 
-23.6183 -24.9939 0 
-19.9194 19.9817 0 
-19.8541 19.984 0 
9.81484 24.967 0 
-24.994 9.14097 0 
-24.9975 -9.95522 0 
-24.8895 17.6541 0 
-24.9899 24.9925 0 
-19.9633 20 0 
-24.8465 7.36872 0 
-15.4045 10 0 
-24.8562 18.9433 0 
-24.9884 11.4306 0 
-24.6724 12.955 0 
-24.6458 14.0065 0 
-24.9911 10.1481 0 
-24.9414 15.5306 0 
-12.1065 -15.139 0 
-17.6091 18.7107 0 
-24.8391 17.1474 0 
-24.6349 24.5716 0 
-24.5898 17.4808 0 
9.85256 -24.9773 0 
-24.8245 -2.05493 0 
-22.7017 16.4015 0 
-1.44429 24.2314 0 
17.1519 24.6038 0 
-20.4069 -25 0 
-6.9253 23.5805 0 
-25 -20.988 0 
-24.9171 19.9576 0 
-16.002 -3.49954 0 
8.84347 24.9768 0 
-9.1209 23.8411 0 
-24.921 -5.34866 0 
6.48686 -22.3128 0 
-24.9912 20 0 
-24.892 23.3787 0 
-6.5076 -22.9201 0 
-25 -25 0 
-24.9096 24.9323 0 
-24.6411 24.4555 0 
-25 -25 0 
10.1883 20.0792 0 
-24.9944 20 0 
-23.3539 -24.9945 0 
-24.9886 10.6962 0 
-20.1588 -25 0 
-21.596 20 0 
-24.7687 15.9912 0 
-21.6268 20 0 
11.0171 20.218 0 
10.0306 -21.0328 0 
-24.9952 17.3012 0 
9.26467 24.9768 0 
-12.257 21.968 0 
-24.9974 -16.7448 0 
9.82307 -24.9993 0 
-24.9913 24.9936 0 
6.59181 -24.9967 0 
21.6925 -10.1421 0 
-24.9948 -24.9977 0 
-24.9289 1.31428 0 
-24.9824 16.8543 0 
-24.9104 24.9476 0 
13.2408 -22.1058 0 
-10.3903 -24.6597 0 
-24.993 -24.9208 0 
-24.9933 -24.9229 0 
-24.8856 -24.9531 0 
23.6311 -24.9262 0 
0.143563 -24.9964 0 
-24.9589 -24.9414 0 
-13.7713 -24.6456 0 
-24.9383 -24.9156 0 
-24.9748 -24.953 0 
0.308189 -24.7329 0 
-11.2166 -24.6504 0 
-24.6836 -24.957 0 
23.8021 -24.9235 0 
-24.9441 -24.9376 0 
19.4299 -24.9794 0 
24.8045 -24.8924 0 
-24.7177 -24.9405 0 
-24.9732 -19.2964 0 
23.3856 -24.9136 0 
-24.9932 -24.93 0 
24.8732 -24.8899 0 
-24.9899 -24.9429 0 
24.7112 -24.8959 0 
-20.2174 -24.7847 0 
24.9874 -24.8835 0 
12.8965 -24.9672 0 
24.9875 -24.881 0 
24.5361 -24.9277 0 
-24.9795 -24.9077 0 
8.9196 -24.9965 0 
-24.9771 -24.9743 0 
-24.9122 -24.904 0 
24.8333 -24.8848 0 
-2.27012 -24.9965 0 
-24.9629 -24.9593 0 
21.8256 -24.9334 0 
-24.9807 -24.9066 0 
-24.9781 -16.9985 0 
-24.8881 -24.8889 0 
-24.7099 -24.9325 0 
-21.0225 -24.785 0 
23.6152 -24.9114 0 
-24.9289 -14.9142 0 
-24.935 -24.9405 0 
24.9947 -24.8844 0 
-24.9661 -22.7825 0 
-13.7072 -24.9476 0 
-24.7149 -14.6026 0 
-24.6796 -24.9514 0 
24.1492 -24.8834 0 
-24.936 -24.9283 0 
-24.6142 -24.9456 0 
-24.7965 -24.1372 0 
6.73302 -24.3737 0 
-13.9711 -22.5488 0 
-17.4883 -23.5747 0 
-24.7514 0.57296 0 
-24.2649 -22.8935 0 
9.12475 -24.9653 0 
-24.6773 5.16745 0 
-24.9964 -6.52848 0 
-23.171 7.89905 0 
-21.3931 6.95165 0 
-10.9899 -13.5978 0 
-24.9655 -14.4421 0 
-5.05462 -12.1316 0 
-24.0997 17.7581 0 
-18.4242 -24.1174 0 
1.59536 -6.03473 0 
-14.3961 -22.4834 0 
-24.6069 -24.8993 0 
-24.8607 -22.3103 0 
20.3354 -13.4195 0 
23.4041 -11.7473 0 
-20.1411 -2.88799 0 
-24.731 -24.6469 0 
22.0772 -13.2193 0 
-0.222756 -8.09253 0 
-24.9878 23.2809 0 
-24.2953 24.8222 0 
-24.989 19.9984 0 
-11.7955 -16.9247 0 
4.75431 0.0870417 0 
-24.8684 -15.8067 0 
-24.9902 2.85113 0 
-2.70013 0.00148038 0 
10.4656 -24.9842 0 
-24.8226 -14.202 0 
-24.975 19.9988 0 
-24.9041 -9.90248 0 
-24.9992 -24.9998 0 
-24.2598 -22.9016 0 
-10.7796 -22.6924 0 
-24.9266 21.5445 0 
3.39991 -10.8986 0 
-24.9996 -24.9999 0 
19.5978 -8.96144 0 
-24.1821 -14.6443 0 
-24.9302 13.0003 0 
-25 -25 0 
-24.9043 -18.2878 0 
-24.9858 19.9995 0 
-24.1398 6.90846 0 
-24.9739 -2.67679 0 
-11.7398 -24.9927 0 
-23.9129 14.1284 0 
-23.2533 4.29648 0 
-24.5023 -7.81792 0 
-20.1895 -24.7068 0 
-24.2782 24.8184 0 
-21.0548 -24.7946 0 
3.19437 -24.9919 0 
-24.9968 -20.7306 0 
-24.7494 -24.7733 0 
8.1046 -24.9792 0 
19.6884 -24.9053 0 
-24.9882 -24.9833 0 
-25 -25 0 
23.5228 -24.9263 0 
-24.9662 -24.8712 0 
9.68919 -23.9015 0 
-25 -24.8558 0 
-23.299 16.2493 0 
-24.8212 -13.1189 0 
-24.7447 -24.7625 0 
-3.34194 -24.99 0 
-12.6672 -11.3581 0 
-25 -25 0 
-24.0236 8.09349 0 
-24.1334 4.1571 0 
-7.46173 -24.8971 0 
4.48566 -24.5776 0 
24.9231 -24.6546 0 
-24.9971 -4.61447 0 
9.68105 -24.8808 0 
6.80573 -3.98476 0 
-24.8563 -24.8098 0 
-11.4156 -24.825 0 
-24.5447 -12.8788 0 
-24.9754 -20.2579 0 
17.1779 -24.8797 0 