<VTKFile type="UnstructuredGrid" version="0.1" byte_order="BigEndian">
  <UnstructuredGrid>
        <Piece NumberOfPoints="8000" NumberOfCells="0" Time= "0.45">      <Points>
        <DataArray name="Position" type="Float32"  NumberOfComponents= "3"  format="ascii">

36.1479 2.27841 0 
39.5476 19.6419 0 
42.106 12.5015 0 
42.9023 16.6914 0 
44.8947 0.896406 0 
43.8278 13.4884 0 
44.6683 14.9897 0 
44.6224 22.6955 0 
44.6653 30.8651 0 
46.3456 6.5821 0 
46.6404 5.74332 0 
48.3153 4.29134 0 
48.1098 7.51032 0 
47.2755 8.67848 0 
47.214 9.14205 0 
48.4784 10.4441 0 
48.179 10.3776 0 
46.2813 9.60807 0 
47.9716 14.933 0 
48.3188 14.5575 0 
46.4784 18.2692 0 
47.8576 17.1695 0 
47.2766 22.8272 0 
48.2725 22.888 0 
46.6867 23.6148 0 
46.4924 24.533 0 
48.6594 29.0425 0 
47.2853 30.819 0 
47.5839 32.169 0 
46.7779 33.5691 0 
48.054 34.2621 0 
47.0133 34.1707 0 
48.3974 35.1906 0 
48.297 37.1669 0 
48.5406 38.6049 0 
48.2327 37.404 0 
48.539 38.6229 0 
49.1864 37.9261 0 
50.0079 0.851775 0 
50.9908 0.420278 0 
50.027 3.62862 0 
49.2585 3.43476 0 
50.1663 1.61886 0 
50.872 6.08773 0 
50.0254 5.33528 0 
49.6879 6.66711 0 
50.3887 7.11696 0 
49.3923 8.79319 0 
49.2589 10.9861 0 
50.2702 9.32108 0 
50.2343 11.4296 0 
50.1143 11.2807 0 
51.2702 9.59124 0 
50.3381 10.997 0 
49.5835 13.329 0 
48.8022 14.0263 0 
48.7996 16.0103 0 
49.8626 14.5003 0 
49.6387 16.1757 0 
50.9503 15.2344 0 
49.9974 17.068 0 
51.4183 18.7309 0 
50.143 18.2917 0 
50.015 19.4093 0 
50.2426 20.7584 0 
49.0455 21.9503 0 
48.841 21.5318 0 
48.6949 22.8768 0 
51.3577 23.5558 0 
50.1156 26.1478 0 
49.0073 25.1561 0 
48.9368 26.7708 0 
51.2272 25.233 0 
50.321 24.7608 0 
50.9744 27.0134 0 
49.8904 28.2761 0 
49.6614 26.9535 0 
50.1484 27.868 0 
50.0301 27.4894 0 
49.3744 28.3005 0 
48.9259 31.2496 0 
50.7938 31.1726 0 
49.1863 29.7831 0 
50.5185 29.6872 0 
50.8941 33.827 0 
50.5116 35.6346 0 
51.2639 35.6488 0 
51.0878 38.3619 0 
50.3783 39.3712 0 
52.5559 0.779067 0 
52.4739 38.9953 0 
53.1066 1.72562 0 
52.4947 0.549189 0 
53.2898 1.89166 0 
53.7695 0.595406 0 
53.3256 39.8335 0 
52.8981 1.12149 0 
53.6304 1.36195 0 
52.3605 0.897216 0 
52.1493 2.60064 0 
53.1478 4.03474 0 
53.3358 2.57701 0 
51.5177 3.49911 0 
52.8235 4.75159 0 
52.0856 3.95999 0 
51.4833 3.43759 0 
53.7085 5.73113 0 
53.0887 4.16534 0 
53.2315 6.51481 0 
53.1986 4.54185 0 
52.767 4.8274 0 
53.5429 6.25986 0 
51.235 7.16838 0 
52.3955 5.20085 0 
52.2088 6.34184 0 
53.4094 8.52782 0 
53.4406 7.13732 0 
52.0468 8.52783 0 
53.2573 9.03202 0 
53.5045 7.43157 0 
51.9878 8.45049 0 
51.4895 9.57452 0 
52.8617 10.3515 0 
52.5363 10.8975 0 
51.9284 10.7206 0 
53.118 9.22541 0 
52.3357 10.9189 0 
52.834 10.3751 0 
52.6805 11.0801 0 
52.9094 11.1576 0 
53.3448 10.4503 0 
51.6722 10.4773 0 
51.513 11.8447 0 
53.4153 14.3673 0 
52.3356 14.3384 0 
53.524 13.8564 0 
51.0899 13.9043 0 
51.8736 13.1707 0 
52.9099 11.7133 0 
51.799 12.0543 0 
53.0343 12.7609 0 
52.7945 13.2767 0 
53.6108 15.4611 0 
53.2337 15.7527 0 
52.4715 16.0806 0 
53.0333 16.7411 0 
54.0032 17.8577 0 
53.083 19.9194 0 
53.2394 17.3788 0 
52.5397 21.2313 0 
51.8415 20.5503 0 
53.7961 21.77 0 
53.6966 20.977 0 
53.4581 19.3799 0 
53.7424 19.6141 0 
51.8309 24.3251 0 
52.324 22.022 0 
51.3585 23.0072 0 
53.9181 23.5067 0 
53.4053 22.4173 0 
52.0633 23.9777 0 
53.3405 26.5039 0 
52.4797 26.2938 0 
51.3497 25.4494 0 
53.3541 24.7464 0 
52.1912 26.7439 0 
53.1292 25.5144 0 
53.3323 26.718 0 
51.5981 28.5017 0 
53.3782 31.312 0 
51.8661 31.8344 0 
53.0558 31.3239 0 
52.014 31.4704 0 
53.8099 30.3284 0 
51.6017 32.7542 0 
53.4048 32.6178 0 
52.078 32.5415 0 
51.8274 34.1352 0 
53.0984 33.2908 0 
51.59 35.043 0 
52.5614 35.7189 0 
52.0716 35.749 0 
53.3988 35.4736 0 
51.237 34.794 0 
52.6648 35.4226 0 
51.4278 36.6045 0 
51.8846 36.3909 0 
53.098 37.0065 0 
53.4369 37.0972 0 
53.1845 37.6836 0 
51.936 39.1997 0 
52.5173 37.5744 0 
55.4705 0.696293 0 
54.1519 0.907227 0 
54.6742 1.23459 0 
55.4889 38.6774 0 
56.2581 0.159788 0 
55.8511 0.883739 0 
55.6341 2.94531 0 
54.5015 3.14574 0 
55.9889 3.67682 0 
55.8852 1.73969 0 
55.7422 2.7864 0 
55.7113 2.98461 0 
54.7054 3.28202 0 
53.9554 2.79361 0 
56.405 2.56404 0 
55.5189 3.45178 0 
56.0287 3.46739 0 
55.014 4.55574 0 
55.8563 5.80707 0 
55.3477 6.46278 0 
55.9223 6.12207 0 
55.9825 5.65784 0 
56.0355 4.6684 0 
55.8898 6.64322 0 
55.6592 6.76409 0 
55.7014 4.79381 0 
54.0492 4.24382 0 
55.2069 5.85031 0 
55.591 5.23609 0 
54.1771 7.84723 0 
55.7828 7.87431 0 
53.9733 7.24423 0 
55.206 7.97595 0 
54.2619 8.16264 0 
54.0734 8.30181 0 
55.3695 6.71378 0 
54.4629 9.761 0 
56.0844 8.644 0 
54.4666 9.26732 0 
55.3477 7.84046 0 
55.5862 7.94057 0 
56.1205 10.8609 0 
53.9743 10.3431 0 
54.1971 9.29807 0 
53.7047 9.23898 0 
54.2753 9.62271 0 
56.039 9.72677 0 
55.6411 11.4931 0 
55.2993 10.647 0 
54.4649 11.3529 0 
54.8674 9.29074 0 
56.1434 10.3538 0 
55.6321 11.3179 0 
54.7838 10.9072 0 
56.0542 10.7316 0 
54.0896 13.9195 0 
54.2556 14.0067 0 
55.0198 13.8075 0 
55.4062 11.7807 0 
53.8431 14.1094 0 
56.0941 14.6831 0 
53.8779 13.1495 0 
55.0558 13.0655 0 
53.6349 11.7579 0 
55.3679 14.4347 0 
54.9026 15.987 0 
54.4357 15.0702 0 
55.1613 17.0712 0 
54.5314 16.5045 0 
55.9354 16.2734 0 
55.82 14.9378 0 
53.8604 17.209 0 
56.0259 18.2625 0 
56.2121 18.9527 0 
56.1724 17.6027 0 
54.1404 17.1529 0 
55.0372 18.3438 0 
55.683 19.0724 0 
55.3647 18.0764 0 
55.6408 19.2083 0 
55.8475 19.1581 0 
54.2861 19.5147 0 
55.5951 19.1589 0 
54.5291 18.5696 0 
56.1944 17.1683 0 
55.1262 19.881 0 
55.1713 21.1922 0 
56.258 19.5974 0 
55.1021 21.4883 0 
53.9237 19.911 0 
55.3481 22.0455 0 
55.0151 20.6589 0 
56.2322 21.7257 0 
54.5484 19.4633 0 
55.9465 20.4449 0 
55.4971 23.2272 0 
55.1007 23.4142 0 
55.1767 24.5163 0 
53.8703 22.5716 0 
55.5271 23.5237 0 
54.8766 22.9493 0 
54.4614 25.5285 0 
55.5612 27.0676 0 
53.9449 25.7155 0 
55.2215 25.6591 0 
54.3051 24.5463 0 
56.559 25.5576 0 
55.2397 24.8042 0 
55.5341 26.7529 0 
54.7256 27.6415 0 
56.1033 27.206 0 
56.0296 29.4697 0 
55.096 29.0255 0 
54.566 27.2632 0 
54.6684 28.31 0 
55.6142 27.6584 0 
56.2302 28.4139 0 
55.5734 31.7383 0 
54.5165 30.3873 0 
54.4454 31.9354 0 
55.06 31.0426 0 
56.2401 30.5143 0 
54.058 31.5748 0 
55.342 30.8384 0 
53.9418 31.304 0 
54.3564 31.2123 0 
55.5906 31.2601 0 
56.512 30.2922 0 
56.3631 31.7627 0 
54.0336 32.5389 0 
54.7797 33.5975 0 
55.2818 33.1508 0 
54.5528 32.2225 0 
55.4222 31.9448 0 
54.8773 33.4187 0 
54.5864 32.248 0 
55.0437 33.0936 0 
55.1564 33.6341 0 
56.4375 34.2837 0 
55.8735 33.5318 0 
55.8862 36.3123 0 
54.7807 35.5139 0 
54.234 34.4153 0 
55.794 34.8677 0 
55.7512 36.1992 0 
56.0791 37.1543 0 
56.0213 36.0594 0 
56.1353 35.7933 0 
54.7777 38.0048 0 
56.0722 37.5837 0 
54.5396 38.3045 0 
54.183 38.4521 0 
56.1323 37.7219 0 
55.3409 37.1761 0 
55.5135 36.8326 0 
57.1055 39.7838 0 
58.0113 0.558367 0 
58.5735 0.370563 0 
56.9423 0.605409 0 
57.6316 0.391323 0 
58.6585 0.221364 0 
57.2754 0.719292 0 
58.0241 38.6189 0 
58.1566 37.9764 0 
58.1199 0.391193 0 
57.1614 1.37335 0 
56.7491 2.547 0 
56.3665 1.91039 0 
58.3449 0.765366 0 
58.8948 1.57271 0 
57.5284 3.08467 0 
58.2642 3.91362 0 
57.8225 3.44263 0 
58.1926 2.9949 0 
56.4218 3.69719 0 
58.3793 4.56425 0 
57.394 3.39304 0 
57.1488 3.58472 0 
57.4743 4.00019 0 
57.9394 2.2348 0 
58.6153 3.13755 0 
56.5075 1.34986 0 
57.2011 2.04817 0 
58.6578 6.58101 0 
57.8711 5.94379 0 
57.9839 4.62535 0 
57.8031 4.67613 0 
56.2035 5.86237 0 
58.6283 4.86572 0 
58.4623 7.03223 0 
56.4205 5.07616 0 
56.5326 6.53018 0 
58.0693 5.19183 0 
57.6129 6.23735 0 
58.2657 4.97893 0 
56.2949 8.73433 0 
57.0487 7.74479 0 
56.5964 6.92196 0 
56.8228 6.64928 0 
56.1532 8.64898 0 
57.8111 8.65057 0 
57.8634 8.25563 0 
57.0641 8.32543 0 
58.0572 7.92446 0 
57.0285 7.9136 0 
56.7465 8.85678 0 
58.4761 10.095 0 
58.3494 7.81698 0 
57.2736 8.04488 0 
57.8949 8.9544 0 
57.4982 6.89763 0 
58.291 9.42234 0 
56.882 12.6282 0 
58.8131 12.5633 0 
56.3213 9.03702 0 
56.4994 10.7088 0 
57.6669 11.2654 0 
56.2664 12.3157 0 
56.5828 11.0233 0 
56.9298 10.282 0 
58.7475 11.0837 0 
57.6663 10.3827 0 
56.8032 11.3046 0 
58.4096 10.5484 0 
57.8696 13.0347 0 
57.0537 12.0791 0 
57.2273 12.1341 0 
57.2516 13.724 0 
58.1088 12.883 0 
57.2872 14.8364 0 
57.6167 13.3619 0 
57.5225 12.7457 0 
56.4218 12.1182 0 
58.4241 13.989 0 
56.9453 13.6525 0 
57.0155 12.3615 0 
57.3333 14.0854 0 
57.3089 15.2207 0 
57.3198 14.3722 0 
58.3232 16.4171 0 
58.6233 16.5905 0 
57.0477 14.6114 0 
58.027 17.1159 0 
57.1937 14.5588 0 
57.5658 16.0731 0 
58.2415 14.4604 0 
56.905 16.3467 0 
57.2012 15.6542 0 
56.8425 19.1251 0 
57.8403 18.2176 0 
56.7465 19.1439 0 
57.5899 19.4591 0 
58.5608 17.4442 0 
58.9621 17.1173 0 
57.84 19.0981 0 
57.7342 18.8068 0 
56.8387 19.9521 0 
58.3635 17.2264 0 
57.7435 17.2989 0 
56.8654 18.8029 0 
56.8403 18.8871 0 
58.5438 18.5193 0 
58.4437 18.769 0 
57.0028 18.8335 0 
57.0005 19.2466 0 
57.8834 20.1206 0 
57.7662 19.5425 0 
57.8271 21.8042 0 
57.9545 19.897 0 
58.3227 21.4835 0 
57.6069 19.0747 0 
57.4086 21.8329 0 
57.6226 20.8493 0 
58.3707 20.5132 0 
57.2737 21.9298 0 
56.8962 22.2381 0 
58.16 21.9242 0 
56.7314 20.5189 0 
56.7607 22.1148 0 
57.2711 20.3911 0 
56.3186 20.323 0 
57.8819 21.7518 0 
57.446 20.8995 0 
58.5842 19.4188 0 
58.1089 19.1266 0 
58.4654 20.5157 0 
57.2152 21.9074 0 
58.333 22.4595 0 
57.3737 22.4704 0 
58.4769 23.1858 0 
57.5148 23.4395 0 
56.8749 23.3913 0 
57.654 22.15 0 
56.521 22.7498 0 
58.4941 22.5363 0 
58.0313 22.3699 0 
58.5634 23.5174 0 
56.6824 23.5832 0 
56.4149 25.0387 0 
57.7951 25.6338 0 
57.4327 25.1183 0 
58.663 24.7005 0 
56.8424 24.7737 0 
58.595 26.0113 0 
58.5042 25.7074 0 
58.9013 25.2305 0 
58.5932 26.5965 0 
56.462 26.3417 0 
58.8629 24.7221 0 
57.2006 25.2949 0 
58.0158 26.1202 0 
57.5834 24.4378 0 
58.2366 27.9148 0 
56.4126 27.2823 0 
56.6954 27.5574 0 
58.2471 28.5303 0 
57.1563 27.4677 0 
57.8458 26.9501 0 
57.5662 29.467 0 
57.6717 28.939 0 
58.0052 26.6789 0 
56.4559 28.8499 0 
57.6563 28.8971 0 
58.5508 27.0383 0 
56.3779 28.5178 0 
[...]
      <PointData Vectors="vector">
        <DataArray type="Float32" Name="Velocity" NumberOfComponents="3" format="ascii">

-247.14 -185.82 0 
-231.477 -103.832 0 
-217.521 -134.618 0 
-274.553 -143.539 0 
-235.644 -128.291 0 
-213.192 -122.679 0 
-289.161 -95.444 0 
-222.55 -80.1048 0 
-204.114 -67.0263 0 
-281.399 -118.522 0 
-279.235 -178.556 0 
-267.742 -150.202 0 
-307.16 -137.028 0 
-262.196 -116.949 0 
-234.296 -105.96 0 
-234.942 -76.7336 0 
-220.26 -7.84086 0 
-209.311 -98.156 0 
-278.91 -102.807 0 
-258.899 -59.5071 0 
-269.348 -196.637 0 
-258.378 -190.159 0 
-242.73 -151.835 0 
-279.692 -142.603 0 
-299.573 -150.974 0 
-173.025 72.1444 0 
-304.807 -146.965 0 
-278.37 -146.409 0 
-251.608 -180.022 0 
-216.213 -128.427 0 
-190.744 -131.02 0 
-222.449 -105.988 0 
-225.945 -136.494 0 
-273.002 -27.4241 0 
-295.863 -85.4463 0 
-196.876 71.8723 0 
-222.739 -110.484 0 
-230.717 -131.062 0 
-247.248 -101.6 0 
-259.535 -115.743 0 
-259.157 -136.017 0 
-264.092 -24.5916 0 
-250.17 -238.024 0 
-271.5 -122.267 0 
-221.965 -67.1455 0 
-254.902 -56.7815 0 
-265.834 -77.8024 0 
-199.05 -81.615 0 
-255.879 -88.7145 0 
-247.335 -48.7275 0 
-220.654 34.3141 0 
-278.8 -47.0964 0 
-244.601 -192.417 0 
-236.925 -76.0356 0 
-268.411 -65.514 0 
-273.004 -184.266 0 
-226.19 41.3996 0 
-230.761 162.586 0 
-234.997 -183.781 0 
-263.759 -57.5431 0 
-218.067 -44.5709 0 
-214.051 -51.7301 0 
-237.872 -198.962 0 
-236.312 -179.941 0 
-264.22 -31.3129 0 
-261.205 -61.2496 0 
-226.919 -130.444 0 
-246.968 -222.22 0 
-248.974 -26.3524 0 
-254.615 -168.413 0 
-257.099 -25.6977 0 
-260.798 -40.4879 0 
-221.728 -149.276 0 
-237.027 7.45082 0 
-206.738 -176.79 0 
-237.976 -184.516 0 
-238.364 -196.259 0 
-227.029 -162.84 0 
-241.683 -29.7059 0 
-254.327 -133.081 0 
-250.235 -190.199 0 
-186.129 -39.5057 0 
-214.731 -122.119 0 
-251.542 -178.282 0 
-245.395 -160.953 0 
-265.44 -162.86 0 
-274.415 -57.822 0 
-227.865 32.528 0 
-315.708 -145.454 0 
-273.824 -71.9482 0 
-236.537 -17.8843 0 
-276.473 -53.0174 0 
-208.742 -116.508 0 
-204.581 -128.447 0 
-234.948 -106.135 0 
-214.815 -79.1581 0 
-286.479 -127.919 0 
-253.017 -128.241 0 
-248.039 -63.67 0 
-244.192 -109.971 0 
-178.698 100.577 0 
-199.847 -69.7026 0 
-217.089 -42.6602 0 
-288.651 -76.6965 0 
-264.56 33.4235 0 
-265.47 -74.5677 0 
-241.983 -113.492 0 
-229.83 -145.09 0 
-225.676 -85.7277 0 
-204.335 -73.8215 0 
-223.703 -132.084 0 
-233.893 -83.8217 0 
-233.051 -91.6888 0 
-248.896 -72.7176 0 
-270.055 -88.8647 0 
-230.844 -91.4979 0 
-271.192 -218.405 0 
-252.765 -133.413 0 
-273.147 -110.888 0 
-284.747 -119.075 0 
-232.08 -83.2931 0 
-253.473 -202.18 0 
-212.935 -187.95 0 
-239.566 -41.3796 0 
-266.939 -86.0603 0 
-181.178 -85.7671 0 
-231.725 -55.6063 0 
-252.008 -161.734 0 
-258.265 -190.225 0 
-226.742 47.672 0 
-280.417 -124.279 0 
-296.121 -210.095 0 
-231.946 -153.689 0 
-274.334 -167.809 0 
-206.561 -33.9331 0 
-288.808 -79.6949 0 
-203.065 -192.649 0 
-249.849 -187.784 0 
-237.983 -62.4133 0 
-214.379 -186.184 0 
-294.33 -54.3993 0 
-189.42 -73.2607 0 
-255.715 -161.265 0 
-246.114 -136.225 0 
-293.85 -36.2244 0 
-266.354 -210.55 0 
-242.737 -95.2219 0 
-264.38 -207.686 0 
-245.181 -194.738 0 
-250.449 -216.809 0 
-260.942 -182.943 0 
-272.282 -173.799 0 
-222.274 -158.914 0 
-237.955 -54.1257 0 
-252.58 -94.5753 0 
-270.297 -198.698 0 
-276.774 -125.466 0 
-294.004 -159.083 0 
-286.565 -164.749 0 
-249.97 -57.0926 0 
-311.78 -175.718 0 
-320.653 -184.346 0 
-279.255 -161.723 0 
-192.61 -37.5946 0 
-289.095 -182.528 0 
-265.986 -62.9485 0 
-255.19 -74.7036 0 
-221.706 -173.115 0 
-207.849 -116.044 0 
-277.278 -118.741 0 
-301.671 -66.3514 0 
-254.4 -185.46 0 
-203.963 -33.4781 0 
-246.954 -165.361 0 
-243.493 -187.668 0 
-245.754 -171.941 0 
-228.048 -161.782 0 
-286.376 -161.531 0 
-278.587 -147.223 0 
-224.338 -148.067 0 
-268.566 -163.367 0 
-255.626 -18.195 0 
-279.187 -170.847 0 
-273.103 -172.448 0 
-284.526 -174.016 0 
-227.829 -122.152 0 
-275.755 -149.46 0 
-255.052 -115.951 0 
-254.016 -123.134 0 
-262.786 -130.715 0 
-260.555 9.20884 0 
-162.928 -125.233 0 
-230.273 -119.01 0 
-261.881 -111.063 0 
-247.991 -2.75048 0 
-197.128 44.8572 0 
-217.967 12.2537 0 
-229.759 21.263 0 
-237.9 -123.284 0 
-216.503 -159.8 0 
-266.485 -142.811 0 
-247.437 -157.549 0 
-248.275 -160.797 0 
-268.59 -146.079 0 
-234.134 -113.423 0 
-286.415 -139.609 0 
-236.567 -117.792 0 
-229.291 -102.918 0 
-313.41 -160.632 0 
-210.04 -127.95 0 
-226.435 -129.089 0 
-213.701 37.548 0 
-254.69 -91.8904 0 
-270.998 -74.3301 0 
-264.193 -257.718 0 
-227.496 -99.6551 0 
-211.265 -117.715 0 
-225.644 -79.2405 0 
-255.385 -253.73 0 
-227.619 -127.898 0 
-250.327 -184.117 0 
-264.503 -99.9562 0 
-208.798 -34.7256 0 
-235.862 -37.2216 0 
-241.089 -83.3295 0 
-228.237 -60.051 0 
-256.069 -107.54 0 
-217.342 10.6099 0 
-275.235 -128.505 0 
-205.638 -94.928 0 
-265.418 -167.683 0 
-285.46 -84.1532 0 
-220.014 -99.1454 0 
-238.084 -194.309 0 
-246.22 -87.4653 0 
-213.936 -69.3587 0 
-239.095 -109.132 0 
-251.286 -83.5226 0 
-239.12 -129.779 0 
-286.047 -230.52 0 
-241.984 -168.721 0 
-219.758 -58.4858 0 
-217.38 -36.8139 0 
-187.357 -77.0807 0 
-248.47 -54.4328 0 
-262.343 -90.3352 0 
-206.153 -47.9932 0 
-241.266 -187.887 0 
-219.689 -183.128 0 
-304.583 -195.991 0 
-254.802 -195.178 0 
-224.601 -211.033 0 
-260.944 -224.107 0 
-238.957 -218.11 0 
-263.693 -234.315 0 
-265.56 -203.454 0 
-236.587 -76.7795 0 
-276.705 -164.539 0 
-217.205 -197.963 0 
-193.767 -56.9443 0 
-236.19 -94.4415 0 
-229.028 -197.385 0 
-275.544 -28.7692 0 
-311.293 -136.74 0 
-273.03 -80.7 0 
-270.596 -230.458 0 
-233.188 -63.2528 0 
-223.531 17.4121 0 
-218.186 -170.972 0 
-194.222 23.8955 0 
-242.433 -202.249 0 
-256.4 -197.568 0 
-251.323 -174.995 0 
-235.051 -69.4469 0 
-243.05 -61.2513 0 
-287.078 -214.801 0 
-239.598 -179.373 0 
-234.182 -174.283 0 
-257.334 -182.464 0 
-268.87 -81.6742 0 
-263.068 -197.954 0 
-280.915 -73.8036 0 
-249.154 -206.45 0 
-203.542 -147.512 0 
-249.388 -76.1227 0 
-263.548 -209.621 0 
-249.353 -76.8684 0 
-254.782 -159.314 0 
-266.139 -219.761 0 
-222.315 -202.946 0 
-217.218 -178.496 0 
-265.867 -166.45 0 
-280.293 -222.664 0 
-276.641 -232.283 0 
-262.765 -199.262 0 
-233.481 -205.515 0 
-214.456 -66.6799 0 
-208.847 -204.96 0 
-190.686 -184.867 0 
-259.523 -75.7058 0 
-253.852 -194.682 0 
-243.566 -34.5879 0 
-258.372 -175.177 0 
-217.417 -156.946 0 
-283.649 -178.449 0 
-232.866 -31.3737 0 
-265.964 -193.234 0 
-226.145 75.5311 0 
-268.043 -37.7281 0 
-282.069 -161.555 0 
-283.081 -202.078 0 
-232.781 -16.5343 0 
-250.705 -36.3321 0 
-287.362 -176.976 0 
-236.568 -71.2553 0 
-269.464 -73.556 0 
-213.316 -194.992 0 
-282.102 -149.406 0 
-269.152 -150.784 0 
-196.601 32.0929 0 
-248.857 -188.247 0 
-198.567 55.4894 0 
-222.295 -55.8946 0 
-248.758 -157.24 0 
-256.335 -156.95 0 
-259.482 -181.583 0 
-250.318 -171.2 0 
-228.661 -53.7262 0 
-232.875 -149.343 0 
-227.142 -45.8335 0 
-246.076 -175.056 0 
-252.65 15.1685 0 
-199.39 -0.920898 0 
-241.536 -187.004 0 
-233.615 -143.935 0 
-266.264 -124.766 0 
-269.858 -157.499 0 
-218.818 -145.93 0 
-251.083 -183.641 0 
-269.237 -163.46 0 
-230.516 -153.116 0 
-248.408 -47.8893 0 
-253.715 -2.15492 0 
-247.398 -63.8095 0 
-238.271 -65.335 0 
-210.369 -129.156 0 
-190.223 -123.37 0 
-265.343 -155.119 0 
-216.229 -85.0061 0 
-221.612 44.1468 0 
-199.181 70.269 0 
-205.271 -121.747 0 
-279.081 -190.367 0 
-225.189 -111.785 0 
-283.644 -225.228 0 
-221.635 -87.7802 0 
-205.995 -162.702 0 
-255.914 -120.731 0 
-205.614 -39.215 0 
-237.812 -23.8549 0 
-250.213 -158.974 0 
-246.772 -1.36927 0 
-241.283 -104.532 0 
-192.856 21.6796 0 
-273.159 -130.039 0 
-197.952 -43.8008 0 
-223.035 1.6439 0 
-250.566 -115.27 0 
-227.665 87.5433 0 
-229.813 -151.636 0 
-272.544 -147.011 0 
-210.598 -134.733 0 
-214.11 -141.866 0 
-254.544 -95.4533 0 
-229.225 -30.853 0 
-245.256 -115.824 0 
-233.697 -128.539 0 
-216.513 -133.434 0 
-233.87 -128.73 0 
-310.198 -167.217 0 
-267.472 -140.63 0 
-260.472 -108.023 0 
-297.183 -226.718 0 
-249.779 -97.1341 0 
-200.764 -81.2155 0 
-200.315 -105.292 0 
-285.12 -273.906 0 
-243.53 -88.2539 0 
-142.683 98.1933 0 
-259.287 -127.928 0 
-232.733 -221.613 0 
-220.599 -100.912 0 
-151.604 94.0021 0 
-226.379 14.1829 0 
-310.619 -131.573 0 
-295.89 -239.853 0 
-221.931 -84.5427 0 
-210.996 -225.445 0 
-278.932 -94.6121 0 
-226.147 -91.0838 0 
-297.464 -144.39 0 
-234.177 -222.703 0 
-218.712 -69.9237 0 
-239.645 -105.79 0 
-257.776 -136.808 0 
-206.541 -41.4616 0 
-213.03 -100.852 0 
-188.949 -75.1199 0 
-264.165 -125.332 0 
-207.015 -228.107 0 
-241.311 -90.4488 0 
-240.904 -90.012 0 
-278.164 -180.458 0 
-193.888 -82.7001 0 
-267.697 -62.0073 0 
-175.558 -138.899 0 
-260.117 -218.585 0 
-223.253 -19.7289 0 
-197.203 -82.8855 0 
-249.544 -88.9353 0 
-207.242 -201.381 0 
-262.136 -166.631 0 
-207.341 -185.312 0 
-246.958 -186.432 0 
-212.655 -174.18 0 
-224.65 -106.386 0 
-195.974 -34.4948 0 
-279.39 -223.568 0 
-227.12 -233.764 0 
-252.067 -11.983 0 
-214.486 -109.13 0 
-231.83 -79.2076 0 
-252.326 -140.448 0 
-262.191 -183.687 0 
-242.383 -193.356 0 
-236.292 -199.96 0 
-234.188 32.3885 0 
-253.034 -202.446 0 
-237.178 -109.092 0 
-274.497 -186.687 0 
-247.237 -202.062 0 
-259.791 -208.749 0 
-240.554 -227.121 0 
-250.374 -208.575 0 
-279.048 -195.718 0 
-209.841 -90.8744 0 
-250.305 -129.454 0 
-270.555 -80.6953 0 
-233.918 -207.758 0 
-169.352 -170.659 0 
-247.663 -197.642 0 
-180.183 -96.1449 0 
-207.744 -83.6605 0 
-215.621 -79.699 0 
-255.019 -181.434 0 
-252.159 -200.511 0 
-256.164 -217.932 0 
-290.142 -143.744 0 
-243.254 -156.494 0 
-246.101 -159.305 0 
-214.953 -221.506 0 
-256.714 -219.795 0 
-207.975 -89.7203 0 
-234.315 -61.5773 0 
-265.205 -150.479 0 
-236.767 -86.9207 0 
-278.174 -186.422 0 
-285.367 -91.3741 0 
-193.02 -67.3383 0 
-260.1 -186.327 0 
-261.193 -144.863 0 
-285.732 -208.217 0 
-253.65 -55.3169 0 
-249.962 -214.18 0 
-175.877 -171.331 0 
-216.962 -154.308 0 
-243.677 -197.265 0 
-276.466 -169.428 0 
-201.711 -83.3631 0 
-249.791 -150.547 0 
-253.676 -178.993 0 
-269.76 -51.0452 0 
-255.087 -192.95 0 
-251.799 -204.963 0 
-216.306 -170.82 0 
-250.37 -227.313 0 
-276.661 -202.221 0 
-247.02 -195.468 0 
-247.583 -94.6772 0 
-241.142 -191.71 0 
-224.235 -175.758 0 
-262.87 -216.944 0 
-239.518 -209.456 0 
-241.885 -169.369 0 
-200.153 61.2942 0 
-248.294 -139.637 0 
-260.037 -180.305 0 
-256.883 -66.1438 0 
-196.001 59.4429 0 
-264.476 -161.664 0 
-197.799 -194.739 0 
-241.933 -157.323 0 
-225.768 -201.098 0 
-211.232 -137.449 0 
-245.39 -218.388 0 
-182.141 -159.461 0 
-215.94 -198.391 0 
-164.455 55.0367 0 
-271.184 -190.203 0 
-220.163 -46.6833 0 
-236.555 -17.5131 0 
-227.142 -148.299 0 
-231.399 -140.978 0 
-143.349 61.4331 0 
-193.035 52.3299 0 
-204.543 -67.3306 0 
-222.926 -154.238 0 
-236.151 -38.329 0 
-270.014 -184.153 0 
-276.718 -150.022 0 
-284.099 -156.554 0 
-270.5 -143.942 0 
-233.002 -20.4508 0 
-288.5 -20.7826 0 
-227.465 -133.711 0 
-265.189 -151.164 0 
-262.396 -24.9467 0 
-264.379 -4.15879 0 
-213.107 54.1545 0 
-183.684 -140.663 0 
-261.38 -6.22825 0 
-191.37 -146.324 0 
-246.699 -162.23 0 
-190.273 -138.226 0 
-203.725 3.11231 0 
-252.342 -154.013 0 
-193.645 -140.586 0 
-261.175 -105.129 0 
-232.255 -171.25 0 
-261.158 -140.081 0 
-242.83 2.42713 0 
-234.918 -74.947 0 
-270.283 -165.946 0 
-265.158 -174.547 0 
-235.627 -117.255 0 
-255.054 -297.185 0 
-285.548 -251.207 0 
-236.671 -27.5969 0 
-245.749 -27.5895 0 
-263.444 -154.948 0 
-238.05 -136.861 0 
-268.14 -176.491 0 
-242.938 -152.7 0 
-200.338 -133.832 0 
-243.743 -178.266 0 
-243.461 -234.622 0 
-255.716 -144.337 0 
-287.717 -126.737 0 
-290.854 -128.602 0 
-211.341 -122.114 0 
-231.466 -166.551 0 
-249.171 -137.306 0 
-192.125 -13.161 0 
-264.376 -156.055 0 
-207.357 -131.029 0 
-269.327 -173.163 0 
-262.285 -147.93 0 
-222.325 -101.869 0 
-174.4 86.4136 0 
-251.678 -143.662 0 
-256.507 -163.344 0 
-251.283 -159.069 0 
-272.118 -296.687 0 
-286.402 -140.456 0 
-279.164 -144.477 0 
-172.059 -117.867 0 
-275.509 -125.075 0 
-245.825 -145.163 0 
-230.595 -180.8 0 
-254.74 -140.426 0 
-218.66 -135.336 0 
-215.542 -134.599 0 
-304.272 -147.631 0 
-256.081 -221.223 0 
-184.526 -120.253 0 
-240.709 -262.65 0 
-260.871 -236.708 0 
-231.323 -145.365 0 
-220.323 -139.264 0 
-255.821 -132.8 0 
-182.479 -160.346 0 
-257.515 -151.377 0 
-209.751 -67.0391 0 
-247.65 -129.988 0 
-283.902 -115.999 0 
-225.405 -217.081 0 
-255.723 -229.627 0 
-263.361 -133.47 0 
-244.741 -3.61908 0 
-246.908 -222.195 0 
-275.323 -232.223 0 
-230.938 -92.0041 0 
-218.765 -104.932 0 
-269.204 -123.511 0 
-201.204 -4.28002 0 
-179.449 -22.8998 0 
-232.767 96.3474 0 
-192.58 -20.7758 0 
-281.48 -144.189 0 
-209.368 -116.556 0 
-252.631 -98.9508 0 
-258.273 -133.419 0 
-284.663 -78.7791 0 
-239.624 -91.638 0 
-248.584 -198.507 0 
-274.819 -136.458 0 
-294.245 -121.074 0 
-267.179 -128.055 0 
-223.38 -38.6125 0 
-224.033 -130.484 0 
-172.751 93.1917 0 
-217.09 -77.5401 0 
-256.184 -84.907 0 
-246.203 -81.8085 0 
-202.108 -111.826 0 
-249.146 -202.579 0 
-267.483 -190.117 0 
-253.33 -98.9263 0 
-204.753 -106.432 0 
-270.572 -62.4327 0 
-223.458 -207.978 0 
-240.355 -35.5036 0 
-228.475 -96.877 0 
-229.169 -133.191 0 
-235.615 -94.0258 0 
-215.704 -102.25 0 
-246.534 -200.071 0 
-229.912 -203.187 0 
-238.549 -58.9788 0 
-264.011 -253.717 0 
-266.503 -73.6246 0 
-262.808 -61.6708 0 
-253.06 -194.775 0 
-260.066 -91.6757 0 
-246.018 -207.308 0 
-218.962 -52.08 0 
-255.234 -104.008 0 
-220.399 -223.765 0 
-225.141 -98.8116 0 
-259.571 -92.2015 0 
-232.021 -72.39 0 
-208.353 -240.954 0 
-230.428 -220.85 0 
-287.617 -91.5188 0 
-248.108 -232.854 0 
-205.623 -205.576 0 
-184.391 -55.3221 0 
-229.979 -223.446 0 
-206.148 26.4011 0 
-246.625 -52.158 0 
-240.031 -220.829 0 
-227.564 -192.916 0 
-264.131 -231.371 0 
-178.425 -61.4666 0 
-276.269 -201.95 0 
-190.942 -235.215 0 
-225.493 -189.463 0 
-244.309 -105.746 0 
-189.742 -58.2755 0 
-207.348 -87.7618 0 
-241.409 -199.107 0 
-238.545 -193.919 0 
-274.413 -142.267 0 
-240.111 -66.4806 0 
-226.123 -121.719 0 
-174.196 -132.913 0 
-256.755 -50.2642 0 
-240.33 -242.763 0 
-252.487 -214.325 0 
-242.776 -208.567 0 
-225.727 -172.147 0 
-254.47 -166.91 0 
-278.605 -196.665 0 
-230.023 -83.0262 0 
-207.535 -143.267 0 
-266.534 -220.423 0 
-288.181 -177.875 0 
-224.042 -159.914 0 
-234.987 -83.7912 0 
-268.415 -83.7006 0 
-226.892 -127.102 0 
-209.49 -64.7096 0 
-222.777 -95.7973 0 
-264.111 -112.402 0 
-217.245 -101.257 0 
-222.692 -59.0108 0 
-230.779 -176.188 0 
-229.631 -220.804 0 
-243.11 -120.71 0 
-264.049 -152.341 0 
-217.278 -197.997 0 
-257.821 -168.52 0 
-290.093 -180.292 0 
-251.554 -169.383 0 
-188.623 -75.4375 0 
-230.696 -84.4986 0 
-217.16 -81.7469 0 
-184.337 -155.467 0 
-236.85 -79.6185 0 
-269.512 -168.804 0 
-225.3 -168.373 0 
-200.634 -52.0812 0 
-240.497 -68.2926 0 
-243.516 -56.0742 0 
-276.948 -168.974 0 
-230.649 -166.695 0 
-223.472 -66.4246 0 
-262.208 -94.2714 0 
-241.4 -168.429 0 
-257.713 -167.89 0 
-218.275 -190.19 0 
-246.112 -183.018 0 
-237.621 -170.95 0 
-237.128 -168.178 0 
-212.403 -202.797 0 
-163.574 -64.0342 0 
-203.337 -103.821 0 
-273.799 -186.606 0 
-234.459 -185.389 0 
-240.344 -204.369 0 
-246.444 -103.212 0 
-215.359 -175.306 0 
-259.286 -51.7406 0 
-245.195 -64.614 0 
-236.941 -78.9575 0 
-242.358 -47.4015 0 
-258.13 -195.881 0 
-248.609 -169.755 0 
-226.682 -169.129 0 
-237.666 -185.295 0 
-275.214 -167.56 0 
-282.483 -166.245 0 
-242.964 -181.426 0 
-282.836 -158.35 0 
-203.45 -194.838 0 
-215.963 -185.992 0 
-247.381 -60.0419 0 
-187.878 -192.181 0 
-240.135 -184.518 0 
-247.318 -239.629 0 
-227.187 -167.286 0 
-260.949 -130.281 0 
-233.57 -193.847 0 
-214.556 -157.116 0 
-221.589 -173.892 0 
-232.266 -186.411 0 
-257.532 -158.02 0 
-211.864 -195.775 0 
-265.707 -144.725 0 
-255.316 -188.496 0 
-239.466 -162.435 0 
-262.19 -181.384 0 
-213.484 -139.187 0 
-227.235 -137.446 0 
-282.63 -185.198 0 
-246.769 -129.469 0 
-277.288 -166.446 0 
-243.449 -15.5345 0 
-218.911 -162.192 0 
-168.201 66.4971 0 
-203.118 -61.9118 0 
-220.232 -154.596 0 
-223.011 -143.735 0 
-200.583 -35.8654 0 
-242.242 -181.788 0 
-214.829 -32.5136 0 
-218.256 -168.75 0 
-270.57 -169.67 0 
-197.104 -2.8442 0 
-278.431 -156.392 0 
-261.527 -205.07 0 
-227.699 -54.762 0 
-239.523 -172.27 0 
-265.888 -148.01 0 
-222.79 -164.897 0 
-215.691 -2.46313 0 
-242.304 -144.463 0 
-234.277 -148.137 0 
-232.017 -195.105 0 
-229.301 -159.674 0 
-271.01 -130.648 0 
-267.659 -145.706 0 
-193.27 -42.2054 0 
-246.997 -130.833 0 
-270.402 -158.359 0 
-264.526 -188.087 0 
-262.125 -137.405 0 
-226.665 -176.845 0 
-279.558 -47.8801 0 
-197.565 -153.346 0 
-255.899 -29.5287 0 
-155.279 61.7213 0 
-224.664 -129.465 0 
-259.633 -138.33 0 
-214.146 -31.2112 0 
-228.053 -254.15 0 
-261.617 -147.302 0 
-245.514 -131.883 0 
-255.449 -106.44 0 
-311.317 -169.192 0 
-186.88 -178.2 0 
-240.369 -148.401 0 
-266.287 -36.9789 0 
-241.638 -159.109 0 
-283.694 -140.258 0 
-231.968 -205.665 0 
-268.505 -151.656 0 
-205.327 -176.079 0 
-203.216 -169.836 0 
-203.706 -42.9971 0 
-293.679 -208.572 0 
-257.324 -19.9266 0 
-268.869 -200.227 0 
-204.722 -120.666 0 
-215.446 -48.771 0 
-231.056 -137.802 0 
-218.992 -122.056 0 
-244.621 -163.288 0 
-215.848 -160.859 0 
-271.329 -175.518 0 
-235.366 -156.244 0 
-190.7 -174.932 0 
-237.134 -235.434 0 
-264.268 -156.672 0 
-182 -44.3872 0 
-212.065 -158.706 0 
-202.233 -14.6402 0 
-257.015 -164.909 0 
-229.734 -171.909 0 
-242.118 -144.052 0 
-200.871 -11.1479 0 
-255.657 -137.745 0 
-300.909 -171.311 0 
-246.837 -112.626 0 
-250.706 -153.601 0 
-245.017 -170.285 0 
-218.952 -172.768 0 
-234.038 -145.783 0 
-283.359 23.265 0 
-216.798 -123.143 0 
-239.88 -258.928 0 
-265.253 -239.4 0 
-258.713 -171.628 0 
-248.319 -129.909 0 
-257.445 -134.561 0 
-217.769 -251.044 0 
-150.008 -53.1639 0 
-186.077 -4.12608 0 
-210.897 -150.421 0 
-235.118 -163.233 0 
-268.681 -153.308 0 
-232.656 -140.673 0 
-251.825 -126.761 0 
-244.125 -170.32 0 
-262.015 -121.944 0 
-194.747 -126.325 0 
-210.912 -230.309 0 
-222.13 -165.332 0 
-253.293 -155.537 0 
-232.882 -116.799 0 
-223.739 -98.4207 0 
-255.209 -106.016 0 
-218.792 -215.946 0 
-268.197 -129.983 0 
-219.301 -105.375 0 
-233.155 -118.191 0 
-201.97 -21.4256 0 
-181.204 -120.239 0 
-262.022 -140.955 0 
-241.141 -124.596 0 
-222.097 -228.175 0 
-247.753 -245.954 0 
-205.411 -251.775 0 
-273.23 -143.571 0 
-249.806 -20.5258 0 
-206.87 -37.1591 0 
-251.682 -222.001 0 
-247.139 -219.961 0 
-220.493 -156.051 0 
-229.067 -125.672 0 
-213.495 -125.706 0 
-272.01 -239.663 0 
-234.284 -245.29 0 
-209.76 8.6106 0 
-184.412 -21.0975 0 
-205.644 -251.012 0 
-233.755 -143.764 0 
-231.95 -122.03 0 
-199.729 117.568 0 
-212.802 -89.1226 0 
-240.16 -242.65 0 
-267.336 -250.907 0 
-265.209 -233.064 0 
-252.268 -122.883 0 
-215.863 -114.069 0 
-276.682 -162.656 0 
-252.949 -14.1885 0 
-169.723 -19.2311 0 
-238.725 -12.0564 0 
-236.709 -191.033 0 
-203.794 -113.391 0 
-226.392 -216.388 0 
-225.993 -80.788 0 
-276.346 -77.5692 0 
-244.211 -98.7378 0 
-185.39 115.402 0 
-196.161 -220.011 0 
-242.903 -159.43 0 
-211.322 -71.7633 0 
-238.427 -137.243 0 
-202.268 -198.668 0 
-271.19 -226.41 0 
-240.613 -112.576 0 
-185.004 -176.616 0 
-241.855 -94.0815 0 
-222.144 -134.508 0 
-284.521 -245.989 0 
-271.168 -127.357 0 
-276.09 -227.397 0 
-226.07 -212.021 0 
-231.101 -71.706 0 
-215.036 -105.016 0 
-214.376 -104.731 0 
-223.547 -109.141 0 
-258.187 -210.004 0 
-257.763 -189.007 0 
-279.465 -73.9861 0 
-244.753 -223.768 0 
-218.266 -112.716 0 
-238.578 -187.445 0 
-220.388 -69.743 0 
-193.508 -117.856 0 
-186.489 -59.5446 0 
-276.56 -224.557 0 
-205.203 -99.9816 0 
-211.771 -96.6089 0 
-236.898 -90.0975 0 
-202.005 -74.1158 0 
-248.818 -106.357 0 
-222.565 -65.2203 0 
-212.585 15.6749 0 
-218.388 -134.829 0 
-220.938 -222.874 0 
-275.458 -84.2564 0 
-198.122 -92.1253 0 
-208.592 -124.966 0 
-261.608 -91.2558 0 
-195.879 19.5041 0 
-244.651 -93.2111 0 
-250.686 -212.625 0 
-243.892 26.9048 0 