<VTKFile type="UnstructuredGrid" version="0.1" byte_order="BigEndian">
  <UnstructuredGrid>
        <Piece NumberOfPoints="8000" NumberOfCells="0" Time= "0.27">      <Points>
        <DataArray name="Position" type="Float32"  NumberOfComponents= "3"  format="ascii">

80.6331 35.726 0 
81.26 36.7329 0 
82.3709 0.746401 0 
82.4263 3.38067 0 
82.7454 16.7066 0 
83.8606 26.1435 0 
83.3476 25.7474 0 
82.9585 34.7239 0 
82.8944 36.9352 0 
84.8853 39.2684 0 
84.8737 3.69862 0 
85.558 2.73352 0 
86.7162 4.91006 0 
84.3594 3.15283 0 
86.0441 5.12133 0 
84.4667 6.22955 0 
86.3728 6.49517 0 
85.5568 7.31928 0 
86.4828 17.1461 0 
85.956 17.8158 0 
85.8655 24.6604 0 
86.4273 33.3007 0 
84.0369 35.7087 0 
86.1884 36.0239 0 
85.6246 36.3767 0 
84.7057 37.0999 0 
86.0215 36.8041 0 
86.2019 36.6178 0 
86.633 38.2204 0 
85.8957 39.7329 0 
88.4848 1.81113 0 
88.0383 39.1837 0 
88.4749 1.15763 0 
87.829 1.98 0 
88.6325 1.58477 0 
86.8363 0.913782 0 
88.7277 2.68244 0 
88.3878 2.39879 0 
88.0138 3.68242 0 
88.8367 3.50707 0 
87.0923 4.57524 0 
88.7144 5.67098 0 
88.0556 5.37957 0 
88.3335 7.40605 0 
88.8152 7.42201 0 
88.6081 8.10628 0 
89.136 9.06971 0 
87.3619 7.2674 0 
89.1531 11.5027 0 
87.8758 11.3377 0 
88.2416 12.0593 0 
88.4861 16.1203 0 
88.3308 16.9535 0 
88.4769 19.4366 0 
87.9609 18.3749 0 
89.0309 21.6152 0 
87.0863 20.8835 0 
88.9161 20.3818 0 
87.9596 23.8508 0 
87.2035 26.4767 0 
87.4876 25.0199 0 
88.0926 28.475 0 
86.8544 28.7568 0 
88.3319 28.1009 0 
88.8575 31.0747 0 
88.3576 31.358 0 
88.7341 31.757 0 
87.8823 30.1316 0 
87.4407 34.4654 0 
87.6404 35.857 0 
87.0968 36.0104 0 
88.7872 36.4893 0 
87.906 36.7535 0 
86.7783 35.5611 0 
88.8969 35.6286 0 
89.0264 38.5102 0 
87.1768 38.543 0 
88.6839 36.9618 0 
87.2956 37.0425 0 
88.2565 38.7612 0 
91.2908 39.3315 0 
90.4553 0.832576 0 
89.9108 1.15002 0 
89.6386 39.1862 0 
91.0885 1.61794 0 
90.9595 2.21032 0 
89.3812 0.382189 0 
89.7873 1.35585 0 
89.2174 0.416082 0 
91.5871 1.12875 0 
89.6252 0.524069 0 
89.5145 39.3068 0 
89.4706 0.738031 0 
91.1852 37.6686 0 
90.2046 0.202148 0 
90.7279 4.21547 0 
91.4968 2.41295 0 
91.1538 2.88286 0 
89.947 2.60197 0 
89.5342 4.73258 0 
90.7055 1.96572 0 
91.117 2.79005 0 
90.4762 4.61752 0 
91.6363 3.61247 0 
90.9642 4.15484 0 
90.6209 5.42372 0 
91.543 6.84624 0 
91.2898 5.08766 0 
89.9319 4.91504 0 
89.8626 6.30125 0 
91.6088 6.55587 0 
91.621 8.17722 0 
90.2675 8.0338 0 
90.4823 7.9523 0 
91.5777 9.06354 0 
90.9585 8.70537 0 
91.0397 8.24918 0 
89.7067 7.33129 0 
91.1213 8.04239 0 
90.5536 8.02314 0 
90.705 9.00361 0 
91.3006 11.4067 0 
90.3132 10.3836 0 
91.3325 10.964 0 
90.7825 10.794 0 
91.2 10.093 0 
90.6589 10.307 0 
90.5357 11.9846 0 
90.18 11.5294 0 
90.7609 12.9234 0 
90.0523 13.4235 0 
90.3756 14.5072 0 
91.4521 12.4612 0 
89.4644 13.209 0 
90.278 12.4997 0 
91.2752 13.5324 0 
91.7128 14.1214 0 
89.5285 16.4649 0 
89.969 15.5557 0 
90.8897 15.2338 0 
91.2396 16.593 0 
91.7095 19.1435 0 
91.1285 17.5936 0 
90.987 19.6123 0 
91.1836 19.2272 0 
89.3826 17.7251 0 
90.413 22.6035 0 
89.8306 22.9053 0 
89.8481 23.8523 0 
90.689 24.6115 0 
91.2605 24.2797 0 
89.6245 25.8479 0 
90.8744 27.4797 0 
91.5397 26.1202 0 
89.5726 25.6415 0 
91.722 26.2317 0 
90.5411 26.7114 0 
89.691 26.9347 0 
91.4974 30.1926 0 
90.8961 29.1652 0 
89.2989 27.6989 0 
90.8375 28.0779 0 
91.6185 27.3599 0 
91.0468 28.6548 0 
90.705 30.9925 0 
91.1288 31.3167 0 
91.2829 30.9278 0 
90.6616 30.4747 0 
91.4871 31.4635 0 
91.3124 29.841 0 
91.5497 31.3057 0 
91.559 32.4234 0 
89.3705 31.1851 0 
90.2693 32.5034 0 
90.5066 31.452 0 
91.0741 34.0303 0 
91.0693 32.2595 0 
89.2779 32.9527 0 
91.7492 32.4573 0 
91.2845 33.0391 0 
89.3166 34.5853 0 
91.2162 34.6787 0 
91.621 33.5589 0 
89.7091 33.2911 0 
89.4516 32.8868 0 
91.1786 32.7949 0 
90.7224 34.7163 0 
90.1996 37.294 0 
90.8911 36.2469 0 
90.1671 35.4348 0 
90.5861 34.6722 0 
90.5155 35.8365 0 
90.1088 38.7832 0 
90.9285 38.7261 0 
91.0635 38.5285 0 
90.7268 38.6166 0 
90.9785 1.06906 0 
91.3183 37.2659 0 
90.5147 37.0884 0 
89.9773 37.7278 0 
91.6604 39.0931 0 
90.1201 39.744 0 
91.5283 37.0765 0 
90.3878 37.1935 0 
90.3876 37.8922 0 
93.6065 0.332014 0 
93.0586 1.46299 0 
93.5995 1.47878 0 
92.7509 1.64702 0 
94.11 0.941426 0 
92.9745 38.3434 0 
93.0987 39.6124 0 
93.2125 37.7157 0 
92.4598 1.4923 0 
93.4239 39.0314 0 
93.2126 38.3092 0 
91.8056 39.3912 0 
93.0623 39.7816 0 
92.4327 1.48748 0 
93.3826 39.3286 0 
93.4927 0.685022 0 
92.3798 0.548333 0 
93.9897 4.08647 0 
91.7434 2.92784 0 
92.0699 4.45217 0 
92.7456 4.02336 0 
94.0223 3.27099 0 
93.0845 2.51521 0 
92.2294 2.44535 0 
92.8043 4.82658 0 
92.9039 5.54947 0 
92.0069 3.47527 0 
93.3836 3.56394 0 
93.7347 3.17601 0 
93.3379 3.42749 0 
93.9023 4.37949 0 
92.6904 3.19978 0 
93.0258 3.83921 0 
92.618 4.20679 0 
93.7541 3.10299 0 
91.7731 2.31014 0 
92.5701 1.95948 0 
92.7021 5.21101 0 
92.1831 6.51943 0 
93.2421 6.61655 0 
93.0154 6.91808 0 
92.5626 4.98737 0 
92.6549 5.73828 0 
92.9975 6.72765 0 
92.207 6.22793 0 
92.9114 6.14686 0 
92.0866 7.35219 0 
92.0733 5.34603 0 
93.6415 4.72333 0 
93.4707 6.07526 0 
92.0072 6.62159 0 
92.7981 4.89145 0 
93.7499 5.8954 0 
92.3886 6.21602 0 
93.2036 6.70207 0 
92.7812 8.70714 0 
92.9329 8.7666 0 
92.7576 8.10761 0 
91.8856 8.51129 0 
92.9912 9.01202 0 
92.7175 9.16996 0 
94.0683 8.8322 0 
93.3834 9.3627 0 
93.2412 8.24939 0 
93.5352 7.88936 0 
94.0545 7.44735 0 
94.1326 8.09755 0 
92.7514 8.19189 0 
93.2027 7.71128 0 
93.4539 9.14942 0 
93.1892 9.11509 0 
94.1739 9.59513 0 
93.8864 9.12501 0 
92.7822 8.29745 0 
93.575 7.87191 0 
92.2084 8.92846 0 
91.789 7.70019 0 
92.9892 9.60797 0 
92.8497 12.065 0 
93.7762 11.7771 0 
94.1975 9.72807 0 
93.818 10.3376 0 
92.7938 12.2714 0 
93.5143 10.2298 0 
92.9288 11.2308 0 
92.8748 10.1258 0 
92.2964 11.3438 0 
92.0112 10.3346 0 
93.3685 11.0528 0 
93.9963 9.67056 0 
93.3735 11.1724 0 
91.769 11.315 0 
94.2023 10.3804 0 
92.0194 9.80178 0 
92.4996 11.3996 0 
93.293 12.6074 0 
94.056 13.1309 0 
92.755 14.2341 0 
92.073 12.6605 0 
93.8167 13.9019 0 
93.8739 13.2135 0 
93.1471 13.0499 0 
94.0378 12.668 0 
92.8423 13.868 0 
92.4049 12.6795 0 
92.2084 14.4272 0 
93.4715 15.4603 0 
92.8076 16.1531 0 
93.0994 15.8517 0 
92.0978 14.6934 0 
92.6366 16.1759 0 
92.6908 16.6454 0 
92.1873 15.4892 0 
93.7783 16.6834 0 
92.3712 16.6715 0 
92.1114 15.7327 0 
94.053 15.819 0 
93.9312 15.9728 0 
93.8039 14.9332 0 
93.1029 15.7802 0 
93.6108 16.6794 0 
93.9293 16.6044 0 
92.5551 17.4166 0 
92.2453 18.2529 0 
92.9301 19.8462 0 
92.0834 17.6478 0 
93.2109 18.9692 0 
94.1868 19.6894 0 
91.6587 18.0706 0 
93.9843 17.7518 0 
93.5418 17.5389 0 
93.3383 19.9046 0 
93.0978 22.1847 0 
92.1347 21.2012 0 
91.9963 22.2649 0 
94.062 20.6455 0 
92.1183 19.9507 0 
92.8867 24.5281 0 
92.6367 23.629 0 
93.9587 26.2056 0 
92.9728 26.4323 0 
92.1875 26.7435 0 
92.8955 26.1423 0 
93.525 27.7232 0 
94.0443 27.5731 0 
93.8122 27.5131 0 
93.1414 28.2804 0 
92.4337 28.7101 0 
91.9968 27.91 0 
93.0873 27.2831 0 
93.4647 28.5682 0 
92.7139 28.1877 0 
94.0375 28.171 0 
92.844 28.7706 0 
93.2348 30.0657 0 
91.5914 27.9316 0 
92.6142 28.849 0 
92.4382 28.267 0 
92.4214 28.7944 0 
92.8446 28.2486 0 
94.0864 27.9648 0 
92.0859 28.5264 0 
92.9626 28.0627 0 
93.9987 29.2053 0 
93.7108 28.411 0 
93.1594 29.2614 0 
93.605 31.918 0 
91.7229 31.4111 0 
93.5961 31.3089 0 
93.0038 31.2176 0 
93.0149 30.9028 0 
94.0043 31.2596 0 
93.5695 32.0684 0 
93.6557 29.4946 0 
92.498 30.2399 0 
93.7322 30.7437 0 
92.1926 32.2891 0 
92.8121 30.1012 0 
93.7321 31.089 0 
93.8528 29.4801 0 
91.8497 31.55 0 
94.2 30.6679 0 
92.1164 33.5604 0 
93.2928 34.1879 0 
93.7717 32.8831 0 
93.8496 33.3021 0 
92.5915 32.0552 0 
93.8754 32.7476 0 
93.6547 33.0439 0 
92.9461 34.2741 0 
94.1326 32.6593 0 
94.3944 34.0945 0 
92.0237 32.7901 0 
92.7067 33.5719 0 
92.0217 33.9164 0 
92.5584 33.0803 0 
93.9455 32.5276 0 
92.2903 33.0844 0 
91.9842 33.9626 0 
92.9132 32.8107 0 
92.8064 34.5247 0 
93.5056 32.3693 0 
93.5613 34.8889 0 
93.9555 34.8838 0 
91.709 34.7524 0 
91.9178 36.1723 0 
93.6636 34.846 0 
94.0903 36.0908 0 
91.6322 34.9523 0 
91.9508 34.9812 0 
93.4986 35.1899 0 
92.4088 36.2746 0 
94.2329 36.3012 0 
93.3261 36.1613 0 
93.2335 34.4013 0 
93.5366 35.995 0 
93.792 35.7303 0 
92.0688 37.6263 0 
91.5459 37.29 0 
94.0778 39.5648 0 
94.0001 37.7297 0 
93.5908 37.5566 0 
93.2331 38.4221 0 
92.0689 37.7634 0 
92.3766 39.1006 0 
92.3685 37.2435 0 
92.7753 38.4907 0 
92.3289 37.7514 0 
93.2564 39.6636 0 
93.4522 37.1138 0 
92.1726 39.2943 0 
91.834 37.1372 0 
92.7283 38.7108 0 
94.0982 37.8231 0 
93.2988 37.892 0 
92.4419 37.7619 0 
94.3143 0.736131 0 
96.1507 0.508395 0 
95.482 38.4865 0 
95.0547 1.45354 0 
95.5368 1.5054 0 
95.3908 1.98556 0 
96.389 0.0886855 0 
95.7032 39.0641 0 
95.4238 0.189935 0 
95.7866 38.7237 0 
96.5031 0.260197 0 
94.8088 1.25744 0 
95.9593 0.509065 0 
95.5565 0.704455 0 
96.6661 1.55445 0 
96.2419 1.58305 0 
96.4878 38.5366 0 
95.436 1.75927 0 
95.2793 1.36418 0 
95.6139 0.371121 0 
94.0691 38.4775 0 
95.1046 1.46299 0 
95.6307 0.780784 0 
94.7704 0.807006 0 
96.055 1.08102 0 
96.4021 0.224292 0 
94.5061 0.406948 0 
95.9196 38.7176 0 
96.4317 38.6819 0 
96.066 1.13842 0 
94.4088 2.13272 0 
95.6141 38.5321 0 
95.9197 39.4438 0 
96.1784 0.740705 0 
96.1328 3.53196 0 
96.5441 4.06334 0 
96.5082 4.14718 0 
96.2175 4.16365 0 
96.4556 4.38821 0 
95.4076 3.43312 0 
96.1161 2.36831 0 
94.7163 1.95164 0 
96.5032 2.31504 0 
96.1628 4.30024 0 
95.6931 2.73906 0 
95.6489 4.01877 0 
94.8366 2.81486 0 
95.9461 3.48559 0 
96.8185 4.14525 0 
95.6477 3.03909 0 
94.9095 3.95752 0 
95.0727 2.06765 0 
95.6975 3.74532 0 
95.6343 3.72697 0 
96.5654 3.48927 0 
96.2096 2.97402 0 
94.6744 2.33515 0 
94.7705 2.27993 0 
95.8975 2.28155 0 
95.4519 4.27738 0 
95.6713 3.1081 0 
96.3634 2.14454 0 
95.9505 3.42283 0 
94.4513 3.98298 0 
95.5678 4.31424 0 
96.0959 2.94824 0 
94.4905 3.31337 0 
96.6801 4.85852 0 
96.5749 2.02767 0 
94.2074 2.4707 0 
96.6871 4.51673 0 
95.2674 5.75441 0 
95.3284 6.24742 0 
96.1728 5.29203 0 
94.6707 6.47494 0 
[...]
      <PointData Vectors="vector">
        <DataArray type="Float32" Name="Velocity" NumberOfComponents="3" format="ascii">

-231.477 -103.832 0 
-204.116 -67.0255 0 
-247.15 -185.837 0 
-217.518 -134.608 0 
-179.309 -68.732 0 
-211.097 -90.7163 0 
-123.638 114.549 0 
-180.913 -28.5737 0 
-183.513 29.2936 0 
-191.138 0.368312 0 
-178.132 66.3186 0 
-211.159 -117.383 0 
-223.784 -79.3585 0 
-203.074 -121.884 0 
-170.664 -121.528 0 
-180.691 -111.646 0 
-191.677 -76.9344 0 
-140.094 104.877 0 
-172.415 -65.7993 0 
-174.294 -54.5344 0 
-174.706 -52.1782 0 
-171.781 -46.1649 0 
-156.415 -56.2295 0 
-164.753 -21.9335 0 
-172.811 8.12105 0 
-133.073 15.5611 0 
-176.284 4.72472 0 
-114.315 24.8962 0 
-181.224 -1.50337 0 
-144.872 37.1341 0 
-181.052 -145.383 0 
-130.859 83.4297 0 
-180.545 -117.644 0 
-194.738 -127.581 0 
-204.271 -114.342 0 
-150.534 98.1244 0 
-195.313 -116.776 0 
-197.129 -140.905 0 
-174.751 -146.002 0 
-168.238 80.6099 0 
-169.812 -125.651 0 
-140.504 100.446 0 
-158.321 -81.9615 0 
-169.644 -66.0913 0 
-189.273 -97.1054 0 
-189.489 -120.913 0 
-157.596 -73.1708 0 
-170.208 -81.4101 0 
-173.876 -106.695 0 
-154.28 -89.6275 0 
-203.119 -119.843 0 
-191.029 -70.0106 0 
-190.596 -92.7766 0 
-176.28 -62.2045 0 
-147.199 -65.0236 0 
-136.772 108.154 0 
-103.527 103.419 0 
-151.14 -83.5058 0 
-154.363 -61.5534 0 
-194.524 -73.8972 0 
-176.079 -33.1837 0 
-162.777 -75.8582 0 
-168.626 -84.0972 0 
-129.882 79.65 0 
-172.262 -108.572 0 
-148.136 -44.4292 0 
-170.085 -39.1104 0 
-139.552 -44.461 0 
-176.858 -26.7003 0 
-183.309 -27.8155 0 
-174.967 -47.812 0 
-168.729 -4.5928 0 
-205.381 -36.4079 0 
-170.958 -41.0462 0 
-182.465 -11.7935 0 
-132.003 1.37487 0 
-134.785 4.49405 0 
-165.503 -42.305 0 
-148.134 20.3901 0 
-171.929 18.632 0 
-133.543 23.6835 0 
-116.495 59.3924 0 
-140.033 -1.73634 0 
-152.543 -157.928 0 
-130.075 -145.329 0 
-112.612 26.7098 0 
-167.969 -158.498 0 
-185.161 39.7003 0 
-164.773 -136.686 0 
-110.729 46.5668 0 
-185.968 -125.458 0 
-118.372 49.6564 0 
-192.357 -144.01 0 
-185.714 -138.113 0 
-203.138 -133.165 0 
-183.534 -81.6797 0 
-186.583 -123.852 0 
-166.02 74.1681 0 
-181.617 -120.566 0 
-162.054 -66.7833 0 
-185.232 -106.594 0 
-143.723 -123.958 0 
-177.072 -149.082 0 
-144.854 72.8379 0 
-162.861 -103.006 0 
-137.12 88.4334 0 
-184.279 -101.05 0 
-151.348 -144.859 0 
-161.635 -84.9185 0 
-154.304 -89.2995 0 
-151.877 -64.9911 0 
-135.059 81.6089 0 
-124.005 63.9033 0 
-186.971 -63.3508 0 
-161.87 -132.625 0 
-193.822 -127.243 0 
-154.956 -141.377 0 
-179.917 -106.096 0 
-163.055 -88.9115 0 
-148.669 -87.9027 0 
-181.384 -92.6511 0 
-192.853 -70.3658 0 
-184.348 -74.9992 0 
-160.796 -54.9788 0 
-166.746 -114.7 0 
-169.685 -110.86 0 
-186.049 -104.945 0 
-156.206 -61.3378 0 
-167.346 -95.4206 0 
-157.068 -65.7972 0 
-168.687 -51.7898 0 
-188.569 -42.9481 0 
-169.285 -97.5214 0 
-141.876 138.184 0 
-129.963 -73.1499 0 
-123.399 134.804 0 
-137.884 -108.045 0 
-195.023 -78.6002 0 
-154.798 -73.6033 0 
-149.737 -92.1124 0 
-167.696 -68.7579 0 
-204.898 -85.5251 0 
-195.988 -79.0438 0 
-143.022 -51.0371 0 
-164.265 -58.0905 0 
-170.942 -76.1034 0 
-167.613 -72.5552 0 
-177.643 -55.5985 0 
-162.608 -63.0692 0 
-145.582 -25.868 0 
-199.175 -61.6733 0 
-180.831 -92.1745 0 
-177.67 -72.5372 0 
-184.739 -36.2167 0 
-182.066 -44.826 0 
-203.977 -73.6437 0 
-167.963 -38.3951 0 
-186.737 -59.5726 0 
-173.649 -52.4228 0 
-144.837 -74.2541 0 
-203.353 -78.0753 0 
-159.97 -20.1539 0 
-176.389 -13.0063 0 
-173.835 -15.6861 0 
-154.257 -54.3749 0 
-173.119 5.38593 0 
-175.603 -66.1629 0 
-195.76 -57.0388 0 
-169.791 -47.3919 0 
-196.485 -36.4047 0 
-154.081 -7.28883 0 
-172.558 -70.2217 0 
-178.803 -53.2149 0 
-160.738 1.3099 0 
-143.826 -50.9202 0 
-158.062 -29.1498 0 
-133.734 -50.3799 0 
-181.893 -17.4431 0 
-143.303 -31.2074 0 
-169.252 -1.90327 0 
-157.651 9.51595 0 
-162.346 37.6138 0 
-130.902 6.43629 0 
-150.431 14.1257 0 
-159.153 -15.2925 0 
-156.964 26.8615 0 
-144.247 -10.8904 0 
-167.068 9.21599 0 
-150.38 -18.6856 0 
-148.76 32.4206 0 
-126.257 8.41469 0 
-144.492 40.4722 0 
-153.283 38.7663 0 
-156.945 20.3788 0 
-148.942 22.4064 0 
-112.866 36.9511 0 
-127.244 -163.899 0 
-125.655 20.4767 0 
-184.946 34.0324 0 
-220.51 -173.192 0 
-225.58 -140.009 0 
-88.3685 62.0811 0 
-196.593 -188.029 0 
-154.848 -151.43 0 
-174.397 -155.976 0 
-222.578 -179.094 0 
-167.8 37.0201 0 
-156.218 -142.553 0 
-168.744 27.7434 0 
-215.032 -115.428 0 
-200.739 -140.594 0 
-218.594 -130.239 0 
-227.671 -130.739 0 
-134.181 44.6523 0 
-169.593 53.9182 0 
-168.983 47.8145 0 
-149.876 37.3346 0 
-138.707 -117.483 0 
-143.998 4.76018 0 
-176.204 -141.103 0 
-164.425 25.7525 0 
-161.953 -156.866 0 
-165.501 -133.701 0 
-229.676 -75.749 0 
-218.793 -101.774 0 
-210.733 -80.7866 0 
-188.663 -140.435 0 
-180.119 -154.895 0 
-189.826 -146.156 0 
-182.39 -144.452 0 
-138.42 82.9714 0 
-120.7 46.5357 0 
-176.902 -137.393 0 
-120.617 47.843 0 
-162.795 -103.08 0 
-152.587 -79.8206 0 
-185.952 -143.39 0 
-138.218 75.9068 0 
-223.43 -99.8149 0 
-220.759 -75.6031 0 
-131.753 71.2328 0 
-168.878 -115.596 0 
-124.223 -129.315 0 
-171.28 -96.9242 0 
-143.473 95.7542 0 
-141.777 -101.809 0 
-147.794 -132.365 0 
-134.221 -117.937 0 
-159.052 -100.157 0 
-162.565 -125.872 0 
-161.885 -97.5233 0 
-202.369 -71.6939 0 
-238.9 -107.154 0 
-168.219 -113.676 0 
-153.595 -109.519 0 
-186.149 -87.0845 0 
-183.586 -113.649 0 
-146.927 -99.8617 0 
-179.232 -114.049 0 
-194.806 -118.478 0 
-180.433 -94.9445 0 
-132.823 61.7925 0 
-118.721 106.968 0 
-162.306 -73.6082 0 
-129.536 -102.584 0 
-178.771 -85.5128 0 
-148.131 -108.776 0 
-138.633 -142.278 0 
-130.572 -128.739 0 
-134.278 -126.688 0 
-192.086 -67.8874 0 
-164.304 -107.57 0 
-167.175 -91.7117 0 
-140.215 -93.6153 0 
-155.977 -128.901 0 
-148.178 -104.564 0 
-182.558 -109.937 0 
-175.11 -86.5858 0 
-142.477 108.767 0 
-186.24 -112.263 0 
-170.808 -128.02 0 
-158.832 -104.052 0 
-162.632 -111.361 0 
-158.988 -113.488 0 
-168.376 -62.8076 0 
-125.696 -88.5791 0 
-139.881 -90.7597 0 
-121.605 -86.0792 0 
-119.05 110.133 0 
-116.372 100.996 0 
-164.264 -62.2879 0 
-159.01 -87.7788 0 
-168.154 -105.09 0 
-163.746 -58.2853 0 
-154.81 -125.443 0 
-94.8625 96.4759 0 
-125.228 -69.6172 0 
-157.919 -98.8484 0 
-140.432 -84.728 0 
-141.953 -111.117 0 
-130.106 -71.3493 0 
-166.905 -90.4838 0 
-158.456 -104.608 0 
-182.169 -82.9793 0 
-173.091 -87.6281 0 
-164.348 -72.1893 0 
-185.03 -96.2017 0 
-180.893 -77.382 0 
-150.16 -49.4572 0 
-129.459 -60.1869 0 
-160.952 -71.4587 0 
-171.868 -81.5018 0 
-161.402 -67.7833 0 
-128.842 -92.8034 0 
-128.525 -87.805 0 
-124.789 -90.6584 0 
-141.614 -101.21 0 
-147.523 -51.8709 0 
-174.768 -64.1385 0 
-158.193 -44.8063 0 
-160.414 -86.3301 0 
-190.993 -101.53 0 
-124.874 -29.6012 0 
-151.349 -89.752 0 
-102.12 113.849 0 
-158.409 -69.3687 0 
-178.252 -64.4722 0 
-190.307 -49.3998 0 
-149.271 -80.731 0 
-204.363 -83.6279 0 
-165.232 -61.1509 0 
-182.649 -96.4498 0 
-143.271 -39.1835 0 
-168.958 -72.6288 0 
-182.711 -37.1601 0 
-195.676 -39.7008 0 
-203.654 -98.3191 0 
-126.194 -90.7851 0 
-200.032 -86.3463 0 
-156.781 -49.9161 0 
-201.429 -88.8107 0 
-167.301 -84.632 0 
-192.547 -60.9281 0 
-168.641 -84.1299 0 
-160.969 -41.3105 0 
-128.985 -43.2278 0 
-153.134 -75.2081 0 
-134.386 -64.9793 0 
-156.533 -58.3054 0 
-138.319 -79.8722 0 
-168.867 -60.5863 0 
-159.456 -47.4046 0 
-156.946 -36.7441 0 
-192.652 -59.788 0 
-174.343 -83.3029 0 
-153.826 -89.1858 0 
-151.394 -45.0341 0 
-135.657 -24.763 0 
-160.701 -77.5339 0 
-138.133 -49.3842 0 
-174.405 -27.7476 0 
-172.395 -58.448 0 
-149.181 -50.9548 0 
-152.787 -29.5868 0 
-161.038 -66.8083 0 
-171.074 -42.1395 0 
-153.779 -13.391 0 
-134.564 -35.649 0 
-148.787 -42.0919 0 
-143.704 -75.0649 0 
-183.78 -73.6776 0 
-181.938 -22.3803 0 
-122.112 -35.9618 0 
-145.065 -46.0145 0 
-130.576 -35.4002 0 
-171.341 -33.0838 0 
-198.635 3.7303 0 
-203.601 -20.6647 0 
-148.733 -34.6481 0 
-177.818 -41.0505 0 
-186.64 22.6961 0 
-175.057 -33.9452 0 
-150.32 -12.2424 0 
-147.84 -46.4016 0 
-195.28 -15.6503 0 
-193.199 -2.00431 0 
-175.751 8.76366 0 
-151.33 -12.6442 0 
-180.288 -43.353 0 
-139.804 -11.9306 0 
-183.621 29.1499 0 
-166.338 -60.6967 0 
-194.201 -30.5715 0 
-175.013 -0.0617654 0 
-164.715 -34.9905 0 
-158.462 -24.1266 0 
-182.647 8.612 0 
-171.033 -36.8654 0 
-200.573 -12.3711 0 
-171.554 -4.12324 0 
-168.03 1.90873 0 
-144.583 12.8573 0 
-108.075 -25.5578 0 
-170.091 59.9027 0 
-159.225 -15.3696 0 
-160.094 46.5774 0 
-154.373 7.98311 0 
-160.991 -8.80206 0 
-112.561 -11.0478 0 
-188.006 0.856459 0 
-153.321 18.0121 0 
-88.5578 0.474867 0 
-138.974 37.7147 0 
-111.51 -22.3318 0 
-105.049 25.9429 0 
-186.895 -149.431 0 
-200.384 -165.7 0 
-170.904 -182.202 0 
-172.278 -159.959 0 
-129.181 -147.123 0 
-143.16 -6.59909 0 
-115.807 -174.853 0 
-183.638 -132.586 0 
-188.301 -149.341 0 
-178.548 -136.248 0 
-199.328 -143.225 0 
-207.319 -189.19 0 
-89.9707 36.5662 0 
-179.928 -169.37 0 
-181.706 -186.892 0 
-117.235 19.6519 0 
-176.508 -154.345 0 
-154.757 -162.484 0 
-157.445 -158.986 0 
-131.948 44.1532 0 
-134.471 -208.204 0 
-114.99 65.3986 0 
-122.636 29.2847 0 
-147.996 -164.67 0 
-141.049 -140.989 0 
-144.048 -165.206 0 
-120.102 37.8036 0 
-146.502 -165.507 0 
-190.322 -110.556 0 
-171.701 -138.577 0 
-170.778 -117.783 0 
-200.496 -130.255 0 
-172.975 -136.527 0 
-214.503 -108.225 0 
-207.913 -121.344 0 
-195.221 -165.735 0 
-119.869 -178.797 0 
-118.594 55.6248 0 
-160.947 -162.455 0 
-128.211 -161.928 0 
-153.834 55.4904 0 
-147.325 23.8755 0 
-108.313 -146.241 0 
-190.56 -156.884 0 
-133.508 -145.65 0 
-128.767 12.1643 0 
-116.117 30.2833 0 
-131.165 -176.068 0 
-167.918 -165.441 0 
-186.765 -84.8192 0 
-200.387 -120.654 0 
-194.354 -105.334 0 
-195.132 -122.099 0 
-203.715 -95.1211 0 
-196.092 -115.795 0 
-188.581 -106.055 0 
-193.132 -95.8821 0 
-179.921 -131.747 0 
-212.092 -101.306 0 
-157.615 -140.715 0 
-128.591 20.9304 0 
-158.796 -168.351 0 
-115.523 -107.336 0 
-177.291 -154.754 0 
-146.655 42.1222 0 
-173.405 -167.112 0 
-163.431 -150.231 0 
-220.433 -159.458 0 
-170.012 -176.059 0 
-158.784 -131.964 0 
-147.598 52.702 0 
-137.313 37.2735 0 
-167.31 -103.739 0 
-157.669 -83.9186 0 
-201.263 -87.8034 0 
-207.883 -126.269 0 
-183.06 -108.054 0 
-180.454 -98.9658 0 
-142.294 -88.1643 0 
-134.727 62.0929 0 
-158.097 -88.3258 0 
-169.154 -97.3809 0 
-174.042 -97.3049 0 
-184.099 -133.157 0 
-145.686 -118.933 0 
-145.457 -117.182 0 
-128.743 -96.0294 0 
-155.66 -129.637 0 
-173.244 -148.012 0 
-151.161 -131.03 0 
-194.787 -113.519 0 
-187.842 -93.1755 0 
-182.593 -121.724 0 
-108.791 70.6006 0 
-160.739 -114.149 0 
-195.71 -118.569 0 
-143.546 -81.2436 0 
-200.353 -118.461 0 
-132.217 -105.64 0 
-148.605 95.3989 0 
-133.366 -121.049 0 
-95.2178 -120.477 0 
-174.134 -104.226 0 
-198.474 -105.366 0 
-180.727 -87.3546 0 
-171.155 -105.327 0 
-175.964 -66.0055 0 
-183.314 -84.9524 0 
-197.369 -67.618 0 
-178.361 -73.848 0 
-175.058 -101.053 0 
-177.762 -79.1521 0 
-143.107 -136.953 0 
-176.252 -120.118 0 
-185.563 -85.8659 0 
-175.521 -73.8345 0 
-150.423 -143.966 0 
-130.357 -98.3108 0 
-168.13 -76.3697 0 
-128.282 -81.2799 0 
-173.319 -135.98 0 
-175.1 -110.444 0 
-174.825 -117.89 0 
-136.083 -114.864 0 
-169.033 -74.3618 0 
-169.877 -133.645 0 
-136.767 -91.1932 0 
-146.008 -128.229 0 
-134.22 -66.6496 0 
-156.596 -138.087 0 
-160.211 -100.255 0 
-127.294 -122.662 0 
-169.953 -85.5461 0 
-161.929 -134.197 0 
-119.1 -120.03 0 
-142.326 -99.0993 0 
-175.015 -85.5953 0 
-190.566 -134.143 0 
-174.058 -118.611 0 
-162.343 -92.3944 0 
-182.778 -89.3959 0 
-102.867 99.0235 0 
-175.848 -86.1512 0 
-156.225 -119.925 0 
-153.138 -94.6488 0 
-162.739 -124.034 0 
-174.396 -113.647 0 
-182.341 -106.774 0 
-190.649 -70.135 0 
-195.889 -67.2428 0 
-186.145 -89.278 0 
-191.522 -77.4775 0 
-189.603 -106.958 0 
-117.285 -89.6115 0 
-146.934 -68.6815 0 
-155.943 -104.296 0 
-157.505 -77.8242 0 
-139.125 -57.7885 0 
-136.214 -125.647 0 
-130.823 -82.956 0 
-142.344 -100.96 0 
-134.508 72.4538 0 
-151.031 -92.087 0 
-141.951 -97.5239 0 
-130.833 -102.163 0 
-172.426 -112.708 0 
-175.845 -95.2971 0 
-184.377 -80.9537 0 
-164.45 -88.9111 0 
-152.014 -88.6545 0 
-177.671 -120.293 0 
-166.611 -71.4442 0 
-146.004 -65.6303 0 
-158.648 -90.9225 0 
-158.788 -96.5415 0 
-155.906 -94.3695 0 
-173.331 -62.1554 0 
-159.984 -79.8094 0 
-134.981 122.986 0 
-145.527 -98.9667 0 
-190.445 -42.8369 0 
-192.032 -76.3919 0 
-198.074 -76.394 0 
-118.764 -81.9781 0 
-148.04 -78.2795 0 
-119.35 -65.5805 0 
-104.248 -101.549 0 
-176.767 -44.6052 0 
-151.291 -92.5201 0 
-225.41 -114.851 0 
-166.542 -118.206 0 
-161.685 -66.3555 0 
-123.47 -81.1168 0 
-124.634 -95.2353 0 
-170.719 -65.6336 0 
-133.76 -88.4924 0 
-156.688 -91.8136 0 
-166.866 -79.5123 0 
-129.03 -85.1123 0 
-169.368 -78.4954 0 
-131.452 124.118 0 
-159.116 -99.9675 0 
-161.013 -90.7516 0 
-164.55 -97.2309 0 
-192.445 -81.5496 0 
-175.408 -55.5131 0 
-122.638 -92.3164 0 
-126.439 -104.337 0 
-172.328 -96.5715 0 
-157.949 -109.727 0 
-159.345 -60.9799 0 
-125.001 -81.4442 0 
-146.832 -93.3636 0 
-196.534 -65.0041 0 
-176.525 -48.8738 0 
-191.103 -67.9563 0 
-104.647 -76.1852 0 
-158.872 -70.674 0 
-137.968 -72.6919 0 
-171.068 -61.103 0 
-149.239 -88.611 0 
-156.613 -30.8361 0 
-160.065 -64.5729 0 
-129.432 -70.6054 0 
-145.218 -56.189 0 
-166.349 -71.9501 0 
-121.439 105.029 0 
-146.839 -79.973 0 
-149.052 -85.2966 0 
-115.579 -86.1132 0 
-154.484 -80.1419 0 
-155.328 -50.4081 0 
-142.632 -56.2422 0 
-140.684 -46.8782 0 
-143.919 -82.2919 0 
-158.281 -71.1131 0 
-172.815 -90.7821 0 
-178.271 -1.35904 0 
-177.867 27.1794 0 
-127.61 -59.3237 0 
-162.442 -50.0389 0 
-176.813 -73.9678 0 
-124.067 -44.192 0 
-187.616 -49.5913 0 
-107.34 -51.9471 0 
-139.356 -86.6517 0 
-145.483 -67.017 0 
-138.23 -65.065 0 
-149.434 -35.8338 0 
-128.753 -33.7195 0 
-161.821 -30.6921 0 
-153.331 -70.9802 0 
-133.945 -81.0926 0 
-140.727 -68.7555 0 
-175.595 -70.3431 0 
-147.611 -79.6279 0 
-114.674 -54.6734 0 
-167.543 -51.0312 0 
-154.328 -71.8456 0 
-132.262 -54.1108 0 
-165.153 -60.8151 0 
-160.377 -0.52257 0 
-154.522 -70.6486 0 
-136.509 -27.7168 0 
-138.798 -43.0768 0 
-130.799 -45.3155 0 
-172.284 -57.8763 0 
-147.087 -34.1103 0 
-157.17 -25.7725 0 
-178.834 -59.3603 0 
-167.639 -51.7898 0 
-149.276 -44.9378 0 
-175.741 -52.7787 0 
-148.547 -51.09 0 
-205.178 -25.6614 0 
-122.504 -51.7354 0 
-210.471 -53.412 0 
-169.313 -18.1512 0 
-123.383 -49.3075 0 
-148.001 -41.9327 0 
-104.167 -33.0715 0 
-168.967 -73.6347 0 
-151.486 -14.6384 0 
-166.514 -27.1374 0 
-152.366 -28.3397 0 
-124.966 -47.7779 0 
-156.936 -42.3042 0 
-180.715 -13.4492 0 
-113.302 -21.6259 0 
-117.236 -7.91201 0 
-158.631 2.03369 0 
-152.048 9.95929 0 
-130.742 3.17731 0 
-126.732 -19.6056 0 
-178.208 -40.862 0 
-144.67 3.3194 0 
-148.105 -11.3281 0 
-155.161 1.10478 0 
-147.133 -24.3005 0 
-179.469 -16.4351 0 
-153.845 -8.93163 0 
-146.055 24.6576 0 
-142.671 -59.0028 0 
-145.884 -21.6123 0 
-142.348 6.65442 0 
-182.675 -25.5543 0 
-175.168 -10.746 0 
-180.072 -28.3589 0 
-167.282 -3.91422 0 
-119.036 -23.1708 0 
-158.177 2.43772 0 
-138.128 -10.7472 0 
-116.944 -49.5911 0 
-127.898 -15.9102 0 
-157.009 -2.61581 0 
-117.49 -3.0839 0 
-124.575 -33.8434 0 
-131.086 8.60155 0 
-159.261 -32.39 0 
-143.501 1.71107 0 
-183.686 -50.7409 0 
-152.855 -27.2247 0 
-168.42 5.33487 0 
-157.381 5.77978 0 
-146.031 14.0341 0 
-158.058 -3.45482 0 
-148.893 -13.7087 0 
-178.072 -4.36859 0 
-163.842 -11.135 0 
-143.385 -28.9264 0 
-163.378 1.05373 0 
-157.943 2.27287 0 
-162.774 -31.7408 0 
-173.1 -45.1695 0 
-125.682 -13.5627 0 
-152.776 1.62447 0 
-122.866 1.42636 0 
-157.912 -46.9265 0 
-127.359 9.744 0 
-145.113 24.0525 0 
-106.847 -25.9279 0 
-156.244 35.4723 0 
-120.815 31.8377 0 
-101.623 -21.639 0 
-161.359 7.61058 0 
-213.525 -14.4593 0 
-148.508 -138.179 0 
-190.225 25.3591 0 
-105.075 13.0536 0 
-123.145 8.51464 0 
-144.219 4.43167 0 
-104.516 2.38971 0 
-135.109 -2.74172 0 
-137.651 16.5812 0 
-108.91 20.3932 0 
-102.655 -6.17758 0 
-188.875 -130.341 0 
-187.625 -128.842 0 
-173.047 -163.397 0 
-170.281 23.8953 0 
-148.595 -2.21264 0 
-107.937 29.4773 0 
-109.598 41.4624 0 
-165.084 -124.089 0 
-109.719 -179.408 0 
-149.108 -12.2178 0 
-151.103 -199.447 0 
-138.052 5.36161 0 
-127.2 -180.367 0 
-158.584 -176.104 0 
-177.372 -187.858 0 
-152.17 -159.969 0 
-109.939 25.235 0 
-137.993 46.7147 0 
-91.2114 2.18355 0 
-124.236 -175.898 0 
-189.329 -107.316 0 
-192.966 -148.712 0 
-203.84 -183.86 0 
-184.82 -141.899 0 
-202.857 -127.997 0 
-198.036 -151.662 0 
-145.381 -171.542 0 
-161.308 -166.033 0 
-163.747 -174.992 0 
-101.682 55.0522 0 
-181.642 -204.352 0 
-146.31 -157.493 0 
-118.967 18.2447 0 
-183.55 -139.587 0 
-160.564 -151.335 0 
-166.569 -149.803 0 
-123.553 -173.976 0 
-185.238 -156.477 0 
-158.333 -152.864 0 
-179.854 -153.731 0 
-176.967 -119.114 0 
-179.533 -125.002 0 
-187.911 -123.401 0 
-165.341 -111.765 0 
-176.457 -143.642 0 
-139.891 -118.711 0 
-177.039 -146.011 0 
-182.193 -131.194 0 
-166.149 -119.021 0 
-203.415 -120.261 0 
-187.228 -145.257 0 
-182.339 -160.447 0 
-172.295 -144.133 0 
-142.017 -158.256 0 
-133.996 -134.266 0 
-124.511 -170.876 0 
-99.0774 57.6915 0 
-120.086 -4.0054 0 
-134.041 -158.164 0 
-145.378 -150.102 0 
-142.692 -192.031 0 
-132.912 -161.922 0 
-117.673 -168.321 0 
-156.774 -133.948 0 
-130.549 18.8637 0 
-97.8235 25.65 0 
-134.009 -161.816 0 
-138.737 -155.195 0 
-178.156 -131.245 0 
-152.226 -127.601 0 
-164.935 -109.544 0 
-171.083 -114.951 0 
-142.856 -126.736 0 
-162.09 -80.8079 0 
-171.715 -103.04 0 
-194.608 -139.429 0 
-156.701 -128.327 0 
-176.27 -101.414 0 
-176.726 -137.388 0 
-205.155 -119.401 0 
-167.828 -140.233 0 
-148.69 -117.654 0 
-154.986 -164.725 0 
-146.128 -142.684 0 
-119.563 -135.019 0 
-175.897 -151.953 0 
-148.542 -160.97 0 
-151.833 -103.955 0 
-158.967 -165.466 0 
-132.139 -138.141 0 
-123.912 -126.14 0 
-141.478 -150.188 0 
-135.407 -143.294 0 
-130.704 -138.086 0 
-162.353 -116.803 0 
-150.212 -146.641 0 
-140.573 -165.427 0 
-123.509 -124.581 0 
-162.997 -112.819 0 
-147.839 -145.53 0 
-163.354 -157.084 0 
-126.618 -131.059 0 
-133.319 -92.1625 0 
-150.258 -157.437 0 
-152.339 -150.966 0 
-120.499 -161.166 0 
-123.552 40.9927 0 
-169.695 -139.862 0 
-153.926 -175.582 0 
-161.27 -120.995 0 
-165.118 -142.323 0 
-146.931 -157.256 0 
-154.813 -131.944 0 
-126.455 -155.513 0 
-199.14 -85.4879 0 
-179.3 -118.082 0 
-179.829 -74.0845 0 
-155.412 -96.6535 0 
-175.424 -99.482 0 
-185.392 -113.932 0 
-185.607 -118.391 0 
-151.942 -112.677 0 
-140.667 -84.9019 0 
-184.992 -128.86 0 
-192.357 -110.764 0 
-191.481 -128.791 0 
-162.788 -127.298 0 
-157.52 -136.224 0 
-190.878 -125.251 0 
-163.862 -73.2623 0 
-198.707 -91.4829 0 
-146.527 -124.19 0 
-167.477 -134.231 0 
-131.256 -116.679 0 
-174.687 -117.524 0 
-182.099 -136.09 0 
-148.683 -122.676 0 
-164.378 -145.14 0 
-179.024 -142.062 0 
-123.342 -100.795 0 
-168.127 -125.656 0 
-163.121 -111.535 0 
-179.088 -142.588 0 
-152.23 -129.031 0 
-157.331 -122.456 0 
-143.363 -112.609 0 
-164.705 -148.72 0 
-112.881 70.0598 0 
-145.029 -114.255 0 
-130.772 -133.025 0 
-115.124 -138.897 0 
-179.102 -144.994 0 
-196.456 -144.372 0 
-149.046 -117.854 0 
-181.984 -105.568 0 
-175.733 -133.412 0 
-145.631 -123.77 0 
-183.023 -92.0363 0 
-189.474 -96.6897 0 
-162.796 -88.663 0 
-159.39 -88.1452 0 
-151.561 -90.2398 0 
-200.408 -81.1312 0 
-175.153 -103.301 0 
-173.07 -86.3974 0 
-154.563 -102.882 0 
-121.212 -84.9893 0 
-97.8161 78.5324 0 
-105.336 67.3916 0 
-131.519 -126.325 0 
-138.524 -125.256 0 
-162.512 -130.114 0 
-138.723 -105.11 0 
-129.684 -108.654 0 
-146.277 -163.154 0 
-184.784 -113.065 0 
-174.223 -90.5913 0 
-178.277 -109.842 0 
-146.735 -112.019 0 
-178.048 -110.525 0 
-96.2507 60.8243 0 
-169.955 -85.665 0 
-152.133 -151.642 0 
-166.898 -84.7441 0 
-135.943 -87.8326 0 
-173.419 -90.7217 0 
-165.541 -107.057 0 
-157.189 -64.2456 0 
-169.959 -91.7543 0 
-172.952 -100.939 0 
-176.174 -100.344 0 