<VTKFile type="UnstructuredGrid" version="0.1" byte_order="BigEndian">
  <UnstructuredGrid>
        <Piece NumberOfPoints="8000" NumberOfCells="0" Time= "0.15">      <Points>
        <DataArray name="Position" type="Float32"  NumberOfComponents= "3"  format="ascii">

103.559 19.7857 0 
103.899 18.5653 0 
104.284 19.5609 0 
104.306 20.751 0 
103.632 19.9111 0 
104.36 20.7356 0 
103.136 20.8029 0 
104.005 23.5351 0 
103.851 23.3306 0 
104.18 24.5867 0 
104.297 26.469 0 
103.559 27.8395 0 
103.837 26.599 0 
102.94 28.4371 0 
106.898 5.70191 0 
106.903 5.76871 0 
106.725 6.85356 0 
106.256 9.28798 0 
106.749 8.57742 0 
106.588 12.0544 0 
106.709 11.3601 0 
106.497 11.5705 0 
105.216 12.0726 0 
106.69 11.8283 0 
106.612 11.8896 0 
106.519 12.0898 0 
106.815 10.3448 0 
106.347 10.9469 0 
105.253 11.358 0 
105.273 12.1339 0 
105.58 12.3875 0 
106.076 13.843 0 
105.814 12.2545 0 
106.236 12.3893 0 
106.509 12.2443 0 
106.764 13.5174 0 
106.911 13.3323 0 
106.288 12.3738 0 
106.932 14.6951 0 
105.742 13.911 0 
105.814 12.3062 0 
105.589 12.3195 0 
106.466 12.6148 0 
105.859 12.1913 0 
106.683 12.3379 0 
106.872 13.5225 0 
106.236 14.3953 0 
105.81 12.1998 0 
106.562 12.3354 0 
106.629 12.3787 0 
106.58 13.5601 0 
106.273 12.6113 0 
105.383 12.7388 0 
106.429 13.0234 0 
106.396 13.5578 0 
105.947 13.0147 0 
106.428 14.5407 0 
104.991 13.4387 0 
106.284 15.4195 0 
105.81 16.1199 0 
106.697 16.9988 0 
104.52 19.7094 0 
105.597 17.8652 0 
106.827 19.3059 0 
106.572 18.828 0 
106.229 19.5428 0 
105.434 19.3043 0 
106.34 20.3697 0 
105.653 21.0337 0 
106.663 20.5982 0 
106.512 21.2133 0 
104.529 21.7851 0 
106.848 21.6874 0 
105.559 23.0618 0 
105.691 24.1058 0 
106.052 24.153 0 
105.658 24.4128 0 
106.274 24.4712 0 
106.274 24.4703 0 
106.608 24.328 0 
106.026 24.4892 0 
105.99 25.1867 0 
105.33 23.7692 0 
106.427 24.4292 0 
106.578 24.3799 0 
106.953 23.106 0 
105.129 25.8953 0 
106.2 26.699 0 
106.162 28.0121 0 
105.172 26.4958 0 
105.259 26.0241 0 
106.227 26.1345 0 
105.441 27.5976 0 
105.494 27.7903 0 
105.506 25.5984 0 
106.771 27.1497 0 
105.759 27.4183 0 
105.659 28.5594 0 
105.352 28.8016 0 
104.921 28.1029 0 
105.03 28.3613 0 
105.474 30.4635 0 
104.856 28.7189 0 
106.675 29.7193 0 
104.918 30.9691 0 
107.422 5.71201 0 
108.579 5.50695 0 
108.62 6.04383 0 
107.76 5.63325 0 
107.281 6.47685 0 
108.5 5.83477 0 
107.123 6.16938 0 
107.249 6.43423 0 
108.038 5.7203 0 
108.315 5.78338 0 
109.382 5.55826 0 
107.196 6.54924 0 
108.692 6.27842 0 
108.314 6.04335 0 
109.25 5.51256 0 
107.261 5.72166 0 
108.331 6.76818 0 
107.524 5.71797 0 
107.64 5.66907 0 
108.51 5.43215 0 
107.438 6.30424 0 
109.372 5.16501 0 
108.78 6.38318 0 
108.828 8.95254 0 
109.284 8.15087 0 
107.402 7.26266 0 
109.002 7.79569 0 
109.103 7.29553 0 
108.581 9.22501 0 
109.375 7.11416 0 
108.067 9.63453 0 
108.75 8.78137 0 
108.302 8.75995 0 
108.393 9.08204 0 
108.14 7.05041 0 
107.59 7.98639 0 
108.923 8.19255 0 
107.539 8.01437 0 
108.185 8.03997 0 
108.708 7.75484 0 
108.115 9.43399 0 
107.818 9.11461 0 
108.362 9.02753 0 
108.473 7.8988 0 
109.106 9.06252 0 
108.203 7.38606 0 
108.134 7.30404 0 
109.413 9.30382 0 
108.313 8.89855 0 
108.496 9.11429 0 
108.568 7.36575 0 
109.055 8.25609 0 
108.199 8.18887 0 
106.973 10.1711 0 
107.363 9.55466 0 
108.787 10.5638 0 
109.077 12.0042 0 
109.263 9.51459 0 
106.915 10.3446 0 
108.188 9.72323 0 
107.55 11.7133 0 
109.056 12.0751 0 
107.966 11.1615 0 
107.588 11.8915 0 
108.126 12.0907 0 
108.175 10.1344 0 
109.566 9.8646 0 
109.103 10.8693 0 
109.2 12.1568 0 
107.242 11.7573 0 
109.199 11.424 0 
109.402 9.71604 0 
107.347 11.2568 0 
107.064 9.91766 0 
109.326 10.668 0 
107.262 11.012 0 
107.425 10.8907 0 
106.918 10.1168 0 
109.515 11.1386 0 
109.16 11.9934 0 
107.051 10.1871 0 
107.939 10.1378 0 
107.388 9.97348 0 
107.786 9.71393 0 
109.408 10.6658 0 
109.534 11.1233 0 
108.573 10.4872 0 
108.649 10.6269 0 
109.508 10.1625 0 
108.964 10.4922 0 
108.029 12.1599 0 
108.54 11.1012 0 
107.439 11.3903 0 
108.736 10.7508 0 
107.129 9.72631 0 
109.384 10.279 0 
107.629 11.7903 0 
109.382 9.64868 0 
108.382 11.8533 0 
108.109 10.0108 0 
109.252 11.1911 0 
108.411 12.2224 0 
109.128 9.66569 0 
109.281 10.9148 0 
109.117 9.53189 0 
107.017 12.0838 0 
109.06 12.3099 0 
107.009 10.1175 0 
108.512 11.5185 0 
107.883 10.3941 0 
108.062 13.128 0 
109.374 13.6398 0 
108.049 14.6356 0 
108.381 14.0117 0 
109.348 12.9913 0 
109.09 13.5542 0 
109.497 13.795 0 
109.205 12.943 0 
109.325 14.153 0 
108.113 12.3163 0 
107.558 13.9821 0 
109.43 12.4568 0 
109.113 12.3669 0 
108.203 14.1589 0 
109.13 12.5108 0 
107.222 14.3836 0 
107.601 13.23 0 
109.269 13.822 0 
108.932 13.828 0 
108.02 13.3885 0 
108.975 13.9807 0 
109.031 13.6501 0 
108.499 13.0401 0 
109.358 14.3283 0 
107.735 14.2347 0 
107.941 14.0096 0 
109.137 12.717 0 
108.442 14.0306 0 
108.793 13.9053 0 
109.465 14.6271 0 
108.992 13.2094 0 
107.033 12.4509 0 
108.203 12.4833 0 
107.781 13.3254 0 
108.48 12.4013 0 
109.697 13.7854 0 
108.677 12.95 0 
109.37 14.0011 0 
108.472 13.0339 0 
108.258 14.7392 0 
107.192 13.17 0 
108.652 13.9594 0 
107.685 13.9662 0 
106.965 13.7873 0 
107.276 14.3536 0 
107.65 13.693 0 
108.102 14.7152 0 
108.449 13.0271 0 
108.704 14.2465 0 
108.705 14.3498 0 
108.954 13.1391 0 
107.337 14.5081 0 
106.994 13.7543 0 
108.611 12.6434 0 
109.166 13.7338 0 
109.697 13.7028 0 
109.076 13.712 0 
108.165 14.019 0 
107.657 13.7065 0 
107.381 12.5346 0 
107.098 13.3901 0 
107.641 14.7271 0 
109.127 12.8676 0 
108.028 13.5811 0 
109.214 13.8999 0 
107.943 12.5533 0 
107.239 14.7083 0 
108.784 12.8459 0 
107.691 14.2301 0 
107.978 13.2381 0 
107.018 12.8242 0 
109.12 15.5223 0 
108.98 17.2421 0 
108.039 15.0354 0 
108.182 14.9638 0 
107.556 15.3898 0 
109.363 16.4136 0 
109.196 16.3697 0 
109.433 15.3246 0 
108.621 17.2744 0 
109.361 16.4603 0 
109.115 16.2554 0 
109.066 16.225 0 
108.414 15.0612 0 
109.406 14.8666 0 
109.1 16.9623 0 
107.78 16.5441 0 
109.325 16.8079 0 
109.337 14.8166 0 
107.724 17.0938 0 
109.056 15.974 0 
107.561 16.4118 0 
108.193 15.3311 0 
107.999 14.8648 0 
108.541 15.2886 0 
108.932 16.8495 0 
108.251 14.8815 0 
108.362 16.8612 0 
109.08 15.2501 0 
108.671 17.0597 0 
107.827 16.8877 0 
109.168 16.9334 0 
109.254 16.4237 0 
109.25 16.8481 0 
109.385 15.5257 0 
109.426 16.9023 0 
107.422 15.9663 0 
108.868 16.1688 0 
109.533 15.4147 0 
109.538 16.8523 0 
107.675 14.8488 0 
109.413 15.7846 0 
109.131 16.865 0 
109.671 14.9613 0 
109.176 16.943 0 
109.115 16.5679 0 
109.575 16.4601 0 
109.478 15.2657 0 
107.554 17.0326 0 
107.147 15.0797 0 
109.543 16.3834 0 
108.659 16.8623 0 
106.886 15.9821 0 
109.349 17.351 0 
107.744 15.3279 0 
109.373 16.6274 0 
109.396 15.7896 0 
108.593 16.7104 0 
107.808 14.8289 0 
108.973 16.8043 0 
109.622 16.5359 0 
107.372 15.1279 0 
108.955 16.6451 0 
108.93 16.2231 0 
109.455 16.2938 0 
107.806 16.8081 0 
107.231 15.777 0 
109.572 15.1119 0 
108.102 16.4038 0 
107.942 19.0193 0 
109.404 17.6322 0 
108.041 19.9646 0 
107.731 18.8746 0 
107.7 19.1149 0 
107.337 19.7221 0 
107.659 19.2398 0 
107.185 17.862 0 
107.668 19.269 0 
108.471 18.1441 0 
107.864 19.2698 0 
109.322 18.2125 0 
109.163 18.779 0 
109.424 18.7127 0 
107.203 19.0674 0 
108.29 19.5894 0 
108.461 20.1379 0 
108.717 17.8355 0 
108.912 21.2241 0 
109.532 20.8605 0 
109.435 21.1173 0 
107.1 20.325 0 
108.021 21.4655 0 
109.193 20.6439 0 
108.049 21.7298 0 
109.449 20.4243 0 
107.672 20.4693 0 
109.484 21.882 0 
108.098 21.0789 0 
109.198 21.3057 0 
107.754 20.7026 0 
108.052 20.3092 0 
108.927 21.9685 0 
109.259 24.6814 0 
109.113 23.5892 0 
107.575 23.1866 0 
109.325 23.7263 0 
107.084 24.2046 0 
109.313 23.647 0 
109.127 23.6614 0 
107.41 24.2562 0 
108.134 23.2954 0 
107.507 24.1024 0 
107.389 25.3579 0 
108.394 24.628 0 
108.243 27.6866 0 
109.003 27.781 0 
109.011 26.9648 0 
109.256 26.1898 0 
108.376 27.196 0 
109.678 25.9384 0 
109.027 25.6311 0 
109.676 25.576 0 
108.672 27.9349 0 
109.612 26.1025 0 
108.411 26.9546 0 
109.257 25.8254 0 
109.165 27.683 0 
109.026 27.9511 0 
108.755 27.8497 0 
108.09 27.7243 0 
107.437 27.5737 0 
109.465 26.7351 0 
109.41 26.821 0 
109.156 28.0077 0 
109.474 27.3943 0 
109.472 26.2945 0 
109.353 26.1192 0 
109.224 27.6018 0 
108.753 27.1301 0 
108.422 26.9846 0 
109.572 25.742 0 
107.948 26.4066 0 
107.785 28.1514 0 
109.208 29.0865 0 
108.412 28.081 0 
108.28 28.3978 0 
108.768 28.194 0 
108.61 28.4681 0 
108.348 28.341 0 
107.6 28.1851 0 
108.591 28.5813 0 
107.654 28.6904 0 
108.755 28.5253 0 
108.851 28.096 0 
108.02 31.5388 0 
111.251 3.83754 0 
110.006 4.04976 0 
111.482 4.30023 0 
110.701 6.81206 0 
112.038 6.44494 0 
110.15 6.54445 0 
111.326 6.44775 0 
111.024 5.84129 0 
111.652 5.79193 0 
112.069 6.40299 0 
111.302 6.26859 0 
109.887 6.5335 0 
110.14 6.54092 0 
111.97 6.45031 0 
111.821 4.6354 0 
110.944 5.7503 0 
110.168 5.59115 0 
111.018 8.93373 0 
109.996 9.31196 0 
109.937 8.1817 0 
110.266 9.53168 0 
110.488 9.4112 0 
110.24 9.67231 0 
109.952 8.21308 0 
111.052 9.01654 0 
110.32 8.1898 0 
111.856 9.15441 0 
112.265 7.78528 0 
111.979 8.91914 0 
110.96 8.56976 0 
112.062 8.07998 0 
111.938 7.56789 0 
110.114 9.58272 0 
110.807 9.13455 0 
109.628 9.6814 0 
110.296 9.336 0 
110.095 9.37142 0 
111.119 9.19608 0 
111.009 7.53747 0 
111.804 9.27665 0 
111.792 9.55296 0 
111.63 7.13064 0 
109.932 9.34309 0 
110.143 9.56805 0 
111.194 7.93959 0 
110.86 9.40645 0 
109.976 9.58064 0 
111.788 8.47672 0 
111.931 9.25437 0 
110.037 9.66921 0 
110.501 9.69885 0 
110.302 9.4331 0 
110.639 8.44196 0 
110.125 9.50202 0 
111.743 9.37967 0 
111.879 7.85368 0 
109.904 9.08396 0 
111.914 9.24324 0 
110.034 9.50741 0 
109.978 9.57176 0 
111.627 9.26517 0 
111.913 9.20019 0 
111.706 8.22395 0 
110.52 8.64677 0 
109.614 7.24798 0 
111.85 9.07351 0 
110.051 9.05894 0 
111.033 9.23267 0 
111.947 9.11327 0 
111.388 8.13419 0 
110.801 9.36521 0 
109.737 9.19323 0 
110.69 7.51119 0 
110.328 10.5942 0 
111.715 10.3896 0 
110.536 10.7074 0 
110.205 10.5862 0 
111.974 9.94618 0 
109.529 9.87032 0 
[...]
      <PointData Vectors="vector">
        <DataArray type="Float32" Name="Velocity" NumberOfComponents="3" format="ascii">

-112.904 -25.8736 0 
-122.771 11.1378 0 
-140.039 -26.6323 0 
-138.545 -26.3205 0 
-136.67 11.3904 0 
-137.129 2.89179 0 
-107.369 20.0258 0 
-92.0727 16.073 0 
-120.489 17.2001 0 
-131.962 57.3241 0 
-116.206 41.7563 0 
-137.284 29.6802 0 
-110.154 65.0362 0 
-91.0307 76.3121 0 
-119.962 86.9156 0 
-123.663 119.53 0 
-106.536 98.5627 0 
-114.359 92.6808 0 
-111.17 101.123 0 
-105.179 -112.685 0 
-112.789 -115.403 0 
-100.073 -78.2259 0 
-103.645 -105.849 0 
-101.061 -112.402 0 
-99.4732 -106.713 0 
-113.25 -97.9539 0 
-112.02 -114.748 0 
-110.889 -113.265 0 
-120.347 -77.6147 0 
-96.8331 -111.865 0 
-129.097 -94.576 0 
-136.958 -83.2108 0 
-132.615 -85.005 0 
-148.876 -104.179 0 
-133.958 -88.7679 0 
-90.3262 -53.4785 0 
-145.757 -71.0917 0 
-137.797 -78.2435 0 
-144.98 -63.0674 0 
-121.576 -80.3249 0 
-139.024 -66.4507 0 
-146.251 -45.7524 0 
-139.488 -85.5644 0 
-148.053 -69.8206 0 
-108.034 -88.5984 0 
-127.659 -66.9611 0 
-106.805 -76.5344 0 
-123.955 -48.204 0 
-103.411 -63.1104 0 
-138.52 -79.8424 0 
-147.285 -72.7509 0 
-148.877 -43.7353 0 
-139.831 -72.1488 0 
-138.899 -72.3641 0 
-140.93 -68.9678 0 
-119.67 -73.9183 0 
-132.872 -79.2499 0 
-144.141 -57.8267 0 
-121.802 -59.4672 0 
-146.09 -58.603 0 
-111.635 -36.637 0 
-134.529 -72.418 0 
-120.954 -44.9897 0 
-100.478 -83.2686 0 
-139.188 -59.5452 0 
-122.908 -58.5848 0 
-141.73 -55.1484 0 
-100.931 -18.2142 0 
-146.747 -67.3874 0 
-129.009 -57.5358 0 
-115.147 -56.9666 0 
-115.898 -65.668 0 
-104.572 8.61737 0 
-105.634 -65.4902 0 
-119.031 -40.5008 0 
-109.02 -52.6902 0 
-127.109 -48.7342 0 
-129.392 -82.3482 0 
-118.694 -38.6715 0 
-121.183 -57.5515 0 
-106.139 -51.951 0 
-120.888 -46.0954 0 
-101.97 6.07821 0 
-125.539 -34.7265 0 
-95.0697 -57.268 0 
-105.069 -74.5702 0 
-137.742 -37.5742 0 
-101.589 -95.0542 0 
-120.45 -45.8477 0 
-135.642 -49.1464 0 
-121.778 -22.5938 0 
-119.376 -62.0476 0 
-109.284 -48.5484 0 
-144.99 -83.7131 0 
-118.95 -54.9092 0 
-140.053 -72.0875 0 
-90.3152 8.9112 0 
-118.527 -35.0444 0 
-126.586 13.5976 0 
-112.562 -24.8301 0 
-107.242 -34.8786 0 
-103.05 9.55763 0 
-100.405 -10.0237 0 
-97.3246 4.33809 0 
-82.9938 0.452002 0 
-115.438 2.26282 0 
-140.673 4.06592 0 
-126.792 -7.73045 0 
-101.04 -8.17979 0 
-87.2302 -9.77526 0 
-81.1905 22.7672 0 
-101.875 -42.7757 0 
-126.416 27.3751 0 
-118.874 32.7031 0 
-120.324 23.2961 0 
-122.344 21.7347 0 
-117.606 43.4332 0 
-90.6447 60.9062 0 
-78.7043 46.9981 0 
-110.048 50.5983 0 
-136.049 27.2591 0 
-104.712 33.336 0 
-111.89 53.9575 0 
-136.191 42.3918 0 
-136.081 42.8036 0 
-113.278 40.7002 0 
-143.848 47.4963 0 
-95.7884 22.3802 0 
-94.8763 57.2175 0 
-125.395 42.7222 0 
-105.07 72.6687 0 
-89.5941 16.4989 0 
-104.389 81.1342 0 
-79.7928 65.6143 0 
-137.191 50.8849 0 
-108.546 71.6402 0 
-85.6705 72.4493 0 
-96.3445 79.837 0 
-67.5115 84.7447 0 
-117.186 97.2032 0 
-85.8279 71.9742 0 
-98.1975 111.952 0 
-79.9316 99.7901 0 
-95.3212 111.689 0 
-116.229 84.8499 0 
-104.06 83.4728 0 
-88.0091 -109.574 0 
-80.7507 -107.191 0 
-102.92 -123.735 0 
-84.5803 -111.238 0 
-72.2868 -73.6279 0 
-68.9041 -92.8684 0 
-105.084 -92.7346 0 
-100.508 -106.54 0 
-70.0254 -106.554 0 
-67.8618 -111.725 0 
-116.746 -123.709 0 
-78.6539 -71.568 0 
-83.1505 -119.681 0 
-75.2899 -106.855 0 
-125.916 -136.401 0 
-100.952 -119.516 0 
-101.327 -108.062 0 
-79.7112 -116.864 0 
-109.745 -71.3595 0 
-91.3239 -74.5198 0 
-97.3305 -129.257 0 
-82.9622 -109.455 0 
-84.9676 -125.559 0 
-114.331 -129.639 0 
-90.0004 -69.5991 0 
-115.193 -80.6083 0 
-103.152 -105.163 0 
-92.0969 -114.594 0 
-114.735 -84.5657 0 
-108.559 -96.0696 0 
-112.645 -78.9171 0 
-80.7179 -77.5507 0 
-121.845 -70.3696 0 
-110.086 -112.438 0 
-70.7509 -104.123 0 
-110.225 -100.942 0 
-98.1145 -118.277 0 
-87.1028 -102.695 0 
-113.234 -57.8803 0 
-93.0228 -115.113 0 
-98.5282 -95.7883 0 
-107.872 -62.757 0 
-101.536 -60.3896 0 
-112.337 -69.4946 0 
-114.409 -82.4953 0 
-91.3967 -66.7331 0 
-100.695 -69.5551 0 
-105.454 -80.5183 0 
-110.469 -100.124 0 
-106.781 -79.0437 0 
-116.538 -60.5083 0 
-91.2184 -68.295 0 
-120.984 -101.074 0 
-118.966 -62.3332 0 
-105.324 -72.0285 0 
-113.047 -62.0909 0 
-108.205 -68.7387 0 
-62.9326 -70.2185 0 
-120.733 -73.7863 0 
-113.42 -90.496 0 
-104.434 -57.9161 0 
-92.1094 -92.5607 0 
-114.197 -110.319 0 
-74.2312 -87.1726 0 
-108 -89.0706 0 
-66.226 -82.4304 0 
-102.396 -104.046 0 
-109.056 -94.9065 0 
-113.219 -86.836 0 
-95.2886 -76.701 0 
-107.898 -68.0525 0 
-89.7943 -54.1519 0 
-97.5796 -40.8812 0 
-96.6337 -79.9065 0 
-123.19 -89.9972 0 
-109.908 -40.0732 0 
-114.702 -45.633 0 
-97.3733 -87.7778 0 
-100.57 -44.2123 0 
-62.0582 -54.5978 0 
-91.3569 -67.5403 0 
-72.8283 -83.8672 0 
-107.296 -39.3502 0 
-82.5208 -61.4351 0 
-81.4427 -45.3446 0 
-87.2275 -94.7633 0 
-89.5854 -35.3736 0 
-104.521 -46.6046 0 
-83.8142 -106.281 0 
-121.668 -44.2241 0 
-92.3055 -59.7843 0 
-109.476 -57.2572 0 
-88.6081 -87.0752 0 
-86.747 -94.5873 0 
-76.3192 -68.0576 0 
-100.903 -42.7194 0 
-81.3084 -52.1866 0 
-99.955 -78.0729 0 
-76.2396 -68.2734 0 
-82.0428 -104.4 0 
-88.7159 -59.9789 0 
-98.3247 -40.4537 0 
-91.534 -42.3295 0 
-88.9962 -33.143 0 
-87.5607 -53.229 0 
-95.7692 -40.657 0 
-93.6332 -86.2587 0 
-87.1462 -104.37 0 
-95.3391 -72.3479 0 
-100.21 -67.6688 0 
-110.452 -92.1225 0 
-106.444 -85.2992 0 
-124.323 -45.6169 0 
-113.372 -68.3688 0 
-65.9703 -58.2759 0 
-95.5355 -62.7627 0 
-73.8796 -87.5185 0 
-66.9394 -78.9759 0 
-101.765 -54.3224 0 
-63.2613 -57.8101 0 
-77.2688 -62.3 0 
-105.518 -76.264 0 
-75.1502 -72.9104 0 
-116.105 -31.0489 0 
-132.166 -69.7492 0 
-114.689 -33.8767 0 
-92.6325 -34.7436 0 
-102.551 -58.676 0 
-108.08 -64.8407 0 
-81.3766 -41.1065 0 
-81.7851 -21.3283 0 
-66.8336 -56.5496 0 
-105.728 -45.6782 0 
-101.124 -55.4736 0 
-125.346 -20.1891 0 
-65.4933 -70.7264 0 
-85.8009 -67.4442 0 
-114.068 -52.5346 0 
-108.596 -45.6658 0 
-102.875 -38.0142 0 
-70.6863 -44.7076 0 
-90.6076 -59.2124 0 
-108.197 0.0551986 0 
-72.6973 -48.1168 0 
-67.5882 -64.6164 0 
-60.5209 -55.0168 0 
-96.0695 -58.5522 0 
-101.762 -32.8287 0 
-90.2061 -50.3664 0 
-87.359 -67.5216 0 
-92.2764 -60.2253 0 
-60.9474 -34.5488 0 
-88.7963 -58.8498 0 
-72.0222 -34.2842 0 
-99.7012 -52.887 0 
-80.3273 -61.9349 0 
-64.9226 -53.8466 0 
-58.4793 -48.394 0 
-120.017 -52.0965 0 
-103.8 -43.2229 0 
-100.62 -63.7177 0 
-73.697 -60.2479 0 
-93.2152 -39.9086 0 
-99.6461 -64.9746 0 
-59.7115 -58.4889 0 
-108.523 -41.0903 0 
-95.3746 -55.8401 0 
-59.9625 -59.174 0 
-65.0249 -39.9138 0 
-64.8378 -39.6486 0 
-77.4501 -54.13 0 
-101.766 -62.1001 0 
-87.1236 -52.9188 0 
-127.817 -71.6474 0 
-75.3352 -50.5735 0 
-61.7054 -49.7144 0 
-104.17 -0.185336 0 
-84.0415 -67.6171 0 
-102.969 -1.32503 0 
-77.5854 -39.7279 0 
-71.3815 -67.3652 0 
-86.5465 -67.2437 0 
-87.1977 -62.3692 0 
-91.443 -35.7447 0 
-83.2382 -43.341 0 
-103.245 -1.06472 0 
-95.7839 -46.6498 0 
-84.7429 -67.5768 0 
-102.692 -59.4364 0 
-103.688 -29.0737 0 
-52.243 -46.198 0 
-76.0972 -48.5853 0 
-87.865 -40.6324 0 
-116.909 -35.1879 0 
-91.2031 -67.8174 0 
-56.2035 -45.725 0 
-79.9848 -59.5789 0 
-84.1182 -54.4362 0 
-106.506 -43.0041 0 
-108.417 -36.8456 0 
-84.2387 -50.4696 0 
-105.38 -40.6193 0 
-91.0275 -63.3535 0 
-89.1887 -55.209 0 
-96.0746 -98.449 0 
-59.3151 -71.4017 0 
-64.9799 -51.794 0 
-108 -52.5957 0 
-89.3492 -29.8215 0 
-118.79 -35.6308 0 
-77.6556 -19.8129 0 
-116.279 -19.1875 0 
-102.038 -31.7585 0 
-94.3654 3.83041 0 
-92.0252 34.4201 0 
-89.6992 -18.6506 0 
-91.683 -24.4181 0 
-56.8059 -23.3864 0 
-77.3195 -8.62301 0 
-90.4191 -20.3724 0 
-77.2878 18.3709 0 
-107.728 27.4444 0 
-79.6897 6.11814 0 
-113.694 -21.8764 0 
-110.28 -45.3278 0 
-109.987 7.69249 0 
-94.4031 -14.3079 0 
-104.923 -21.8511 0 
-120.015 -19.6235 0 
-117.949 -9.50832 0 
-130.407 -48.8979 0 
-119.691 25.7841 0 
-109.271 -31.9205 0 
-98.4294 -1.56649 0 
-131.244 -16.364 0 
-82.4728 -32.5736 0 
-68.1747 -15.8217 0 
-86.1126 -31.5996 0 
-84.4677 18.7292 0 
-107.626 -39.3687 0 
-92.3647 27.2443 0 
-110.869 12.8906 0 
-89.2072 -25.2499 0 
-80.8878 1.10406 0 
-122.971 -46.4548 0 
-128.442 -50.0053 0 
-106.628 -30.9872 0 
-119.612 -23.54 0 
-82.6275 -0.554936 0 
-103.292 -16.4945 0 
-52.1455 -18.8986 0 
-61.812 -13.7468 0 
-102.635 11.8662 0 
-75.4269 -41.4141 0 
-81.1021 -7.55596 0 
-70.7794 13.0381 0 
-76.542 -5.50489 0 
-116.488 -3.1781 0 
-94.5287 -27.6421 0 
-86.7626 -12.05 0 
-55.7393 -20.405 0 
-64.0651 -3.21432 0 
-108.915 11.7814 0 
-82.2487 -1.33186 0 
-97.5494 -35.3393 0 
-82.8551 -28.684 0 
-63.042 -23.9482 0 
-90.6515 -19.6877 0 
-60.8038 -5.66764 0 
-113.36 -2.00916 0 
-66.6935 -21.2594 0 
-111.232 12.518 0 
-106.748 -23.8288 0 
-114.671 -51.1418 0 
-76.5465 -6.45558 0 
-76.7762 -8.2553 0 
-66.1658 15.5307 0 
-83.7543 18.2769 0 
-59.4361 -2.20095 0 
-74.5044 -15.2974 0 
-75.5492 9.43995 0 
-92.1717 3.06423 0 
-116.627 -10.4564 0 
-115.896 -38.9234 0 
-71.2263 -16.3577 0 
-133.328 -2.55207 0 
-68.2097 -44.396 0 
-94.9923 -14.2856 0 
-104.798 -40.0619 0 
-106.882 15.5143 0 
-86.8743 8.19391 0 
-90.4042 -51.7254 0 
-122.16 2.65448 0 
-71.0889 -16.9012 0 
-131.199 4.23524 0 
-95.0576 -49.3253 0 
-131.922 4.08006 0 
-120.398 -19.9427 0 
-119.123 12.2077 0 
-118.417 43.6125 0 
-121.085 -18.7158 0 
-116.428 -31.3863 0 
-105.303 11.9355 0 
-119.283 -8.31047 0 
-94.7982 18.0537 0 
-92.9886 -39.7463 0 
-74.0965 3.29998 0 
-101.641 -23.6287 0 
-103.197 -41.4074 0 
-103.948 -14.3274 0 
-96.687 -18.2324 0 
-101.124 8.50046 0 
-70.2454 8.37833 0 
-79.7062 9.77617 0 
-110.722 -24.6683 0 
-120.964 28.9649 0 
-91.1117 8.14199 0 
-64.2873 35.1071 0 
-72.9755 3.08545 0 
-87.8793 23.2087 0 
-66.6838 1.84214 0 
-69.2218 26.1448 0 
-112.771 21.6277 0 
-92.0755 12.3737 0 
-69.1694 17.0264 0 
-79.2265 31.7733 0 
-109.959 53.875 0 
-67.0905 68.8983 0 
-119.161 49.2036 0 
-73.9282 65.1505 0 
-76.6456 33.2596 0 
-104.825 62.0133 0 
-104.463 56.8918 0 
-113.635 29.0453 0 
-111.363 61.5501 0 
-108.037 57.0138 0 
-71.5796 30.1226 0 
-76.6198 32.0734 0 
-115.568 56.7554 0 
-129.717 21.6766 0 
-101.345 38.4615 0 
-107.405 70.6596 0 
-117.197 42.4316 0 
-76.2073 81.1168 0 
-75.5529 23.4246 0 
-69.2927 73.8156 0 
-108.104 20.5635 0 
-78.3494 71.1063 0 
-83.5902 57.0794 0 
-88.5357 83.6489 0 
-51.8081 51.2056 0 
-76.7332 57.3977 0 
-51.9647 48.0576 0 
-51.1616 49.7869 0 
-84.0346 76.3826 0 
-78.2594 24.0533 0 
-96.1594 57.4922 0 
-102.185 62.9006 0 
-68.9892 70.3709 0 
-84.0908 88.5633 0 
-100.839 55.1 0 
-71.1504 54.9632 0 
-71.1358 76.8906 0 
-83.9751 76.8667 0 
-52.1594 39.2288 0 
-108.471 37.48 0 
-89.2039 90.4709 0 
-111.122 103.834 0 
-120.724 57.5042 0 
-80.9537 95.0756 0 
-81.9642 104.685 0 
-85.8067 105.904 0 
-83.8911 100.774 0 
-100.405 89.6466 0 
-76.0543 104.579 0 
-100.473 111.994 0 
-82.7394 105.786 0 
-81.6247 102.697 0 
-72.31 96.3672 0 
-79.2614 81.429 0 
-69.1977 113.948 0 
-117.963 -100.559 0 
-65.7986 -103.143 0 
-72.4658 -100.049 0 
-89.877 -113.204 0 
-69.3542 -149.087 0 
-34.0382 -126.544 0 
-78.2682 -130.192 0 
-100.069 -75.0576 0 
-77.928 -86.179 0 
-77.4749 -112.362 0 
-45.8697 -100.842 0 
-56.1039 -102.484 0 
-88.0373 -143.923 0 
-72.2343 -94.3548 0 
-52.7382 -88.6495 0 
-45.6332 -103.304 0 
-83.524 -74.7761 0 
-51.2906 -103.912 0 
-54.9254 -95.8138 0 
-79.3882 -115.337 0 
-125.308 -91.2668 0 
-91.0315 -148.046 0 
-98.7066 -119.732 0 
-110.309 -76.0029 0 
-47.6734 -94.4669 0 
-82.9723 -87.974 0 
-65.3025 -107.732 0 
-76.8218 -81.3396 0 
-80.6731 -92.0453 0 
-92.1574 -59.9159 0 
-86.9315 -91.9013 0 
-108.138 -63.4595 0 
-97.5102 -108.299 0 
-133.655 -63.5038 0 
-103.924 -90.7694 0 
-103.177 -75.9935 0 
-93.2569 -109.235 0 
-85.7013 -75.3254 0 
-86.9531 -69.0636 0 
-67.8477 -89.9593 0 
-71.4714 -95.4245 0 
-88.4578 -72.7046 0 
-44.8994 -57.8593 0 
-93.8492 -107.693 0 
-75.9652 -79.8183 0 
-127.87 -123.743 0 
-90.2923 -61.4506 0 
-85.7531 -86.3405 0 
-85.6938 -87.9601 0 
-79.7243 -117.217 0 
-91.5568 -78.1305 0 
-62.0035 -61.573 0 
-107.739 -57.2693 0 
-106.472 -95.3932 0 
-80.4775 -92.3283 0 
-81.2075 -79.0944 0 
-99.8468 -68.7052 0 
-89.7959 -68.7771 0 
-86.7514 -95.7687 0 
-96.3029 -104.708 0 
-111.278 -92.0178 0 
-76.5712 -89.7238 0 
-91.0084 -100.495 0 
-99.4953 -69.9626 0 
-83.5049 -96.5081 0 
-85.0811 -83.0564 0 
-103.788 -58.553 0 
-113.787 -118.145 0 
-105.159 -70.0925 0 
-78.4671 -89.3522 0 
-75.5553 -72.0564 0 
-76.9926 -64.4708 0 
-91.4768 -86.882 0 
-91.6512 -101.644 0 
-73.3263 -74.3689 0 
-79.4517 -90.5643 0 
-106.377 -57.8824 0 
-90.9187 -85.9562 0 
-68.9312 -74.7822 0 
-98.6004 -62.1385 0 
-111.99 -67.0119 0 
-80.2618 -79.5195 0 
-77.7071 -60.7839 0 
-63.6899 -97.1439 0 
-140.277 -83.9758 0 
-89.7129 -62.5315 0 
-86.1632 -68.9971 0 
-83.5825 -84.3154 0 
-97.6463 -78.5155 0 
-97.1964 -67.9893 0 
-65.2449 -72.7412 0 
-93.1725 -67.9428 0 
-83.0826 -68.4495 0 
-75.658 -62.8524 0 
-83.5397 -89.4704 0 
-98.3169 -93.3642 0 
-85.2517 -93.1876 0 
-98.3662 -109.378 0 
-85.9655 -75.3975 0 
-91.6092 -80.602 0 
-76.0138 -89.5928 0 
-76.6796 -70.9178 0 
-50.2695 -75.389 0 
-70.2584 -96.1859 0 
-102.935 -117.234 0 
-69.2777 -101.684 0 
-96.2454 -60.0527 0 
-109.45 -67.293 0 
-61.427 -88.7111 0 
-78.0228 -102.29 0 
-126.64 -62.3465 0 
-90.2098 -63.3494 0 
-81.6075 -51.8672 0 
-93.4024 -33.4206 0 
-124.134 -34.1157 0 
-91.2987 -69.972 0 
-87.3406 -58.5269 0 
-114.268 -81.7998 0 
-80.7125 -79.1723 0 
-117.788 -61.9876 0 
-108.798 -65.4515 0 
-108.528 -57.0535 0 
-105.287 -49.5785 0 
-59.9847 -88.3211 0 
-105.021 -66.5584 0 
-112.833 -46.6141 0 
-68.5234 -38.5563 0 
-79.9853 -87.8975 0 
-54.0744 -80.9502 0 
-99.5379 -71.8671 0 
-89.4855 -63.7656 0 
-124.52 -27.7302 0 
-100.038 -70.7541 0 
-58.5201 -69.8732 0 
-96.5129 -43.3927 0 
-83.1429 -26.028 0 
-79.542 -108.904 0 
-112.323 -58.7084 0 
-105.598 -37.3758 0 
-74.8295 -78.0115 0 
-100.628 -87.3061 0 
-109.647 -41.377 0 
-78.8968 -67.6418 0 
-52.2394 -81.3769 0 
-99.7731 -44.6428 0 
-112.389 -57.3694 0 
-59.2278 -92.276 0 
-84.1069 -59.8285 0 
-95.8165 -54.4607 0 
-87.4701 -99.9757 0 
-61.294 -63.7517 0 
-97.541 -39.1646 0 
-115.87 -60.0657 0 
-89.61 -48.0684 0 
-55.8963 -89.6101 0 
-99.9073 -54.5833 0 
-111.455 -46.1512 0 
-79.5476 -88.7108 0 
-110.363 -65.3738 0 
-78.9225 -48.4736 0 
-117.259 -31.6114 0 
-95.5978 -72.4337 0 
-75.5046 -43.4284 0 
-90.0774 -69.2718 0 
-69.1029 -35.4586 0 
-61.5195 -88.8084 0 
-89.2173 -76.2186 0 
-69.3981 -65.1994 0 
-94.2704 -66.6973 0 
-102.149 -57.8797 0 
-128.023 -66.4468 0 
-110.108 -45.3926 0 
-92.712 -57.2386 0 
-81.2664 -75.3846 0 
-56.8899 -80.4769 0 
-75.0925 -61.919 0 
-123.946 -40.0293 0 
-88.079 -57.9142 0 
-88.3511 -44.9766 0 
-109.022 -59.8112 0 
-80.3262 -78.2677 0 
-63.1129 -63.6639 0 
-83.8682 -53.9286 0 
-103.585 -60.2846 0 
-47.4207 -79.375 0 
-93.7607 -86.5609 0 
-69.2368 -91.7789 0 
-69.8987 -73.3863 0 
-84.9797 -48.1308 0 
-85.871 -56.918 0 
-117.421 -104.247 0 
-88.8223 -67.7119 0 
-105.357 -93.3633 0 
-54.8944 -55.5531 0 
-96.5041 -46.5066 0 
-83.4411 -44.7074 0 
-128.044 -57.363 0 
-71.3996 -39.9916 0 
-109.412 -74.7175 0 
-89.1933 -55.1973 0 
-113.876 -35.6855 0 
-101.017 -57.3174 0 
-46.1781 -60.1183 0 
-72.5048 -56.6476 0 
-59.0678 -53.8283 0 
-85.2749 -54.5421 0 
-104.45 -47.5624 0 
-54.2149 -41.028 0 
-86.7892 -49.7123 0 
-42.6752 -59.4548 0 
-97.1822 -47.0028 0 
-34.538 -62.5857 0 
-122.857 -46.7773 0 
-93.0662 -54.6001 0 
-98.6559 -51.7132 0 
-122.655 -53.7573 0 
-113.887 -40.3767 0 
-56.3049 -36.9236 0 
-118.893 -62.6392 0 
-92 -49.1375 0 
-87.718 -54.2483 0 
-83.7347 -49.7198 0 
-78.1217 -54.2171 0 
-55.2851 -61.8801 0 
-68.992 -67.9745 0 
-105.919 -39.8894 0 
-97.9148 -25.0969 0 
-82.5454 -62.902 0 
-93.5954 -30.5133 0 
-113.032 -24.0526 0 
-75.1135 -54.4556 0 
-110.291 -50.3151 0 
-70.6516 -49.7469 0 
-96.23 -45.2556 0 
-118.211 -59.5777 0 
-79.6529 -54.8771 0 
-106.238 -39.5739 0 
-103.384 -29.1622 0 
-109.414 -50.4411 0 
-64.5788 -47.6269 0 
-98.9226 -60.1501 0 
-103.748 -44.7663 0 
-73.9241 -47.6789 0 
-104.37 -46.08 0 
-62.7409 -48.0534 0 
-79.6142 -55.3459 0 
-98.1099 -27.2407 0 
-114.374 -38.5748 0 
-86.119 -51.1498 0 
-92.1379 -43.8994 0 
-100.565 -55.5476 0 
-62.2272 -40.9089 0 
-79.501 -54.8303 0 
-94.2835 -24.9277 0 
-110.488 -26.7839 0 
-92.3309 -45.5174 0 
-82.1358 -36.4175 0 
-76.0301 -62.4331 0 
-88.8045 -53.4212 0 
-76.1775 -67.6454 0 
-97.998 -63.3343 0 
-78.6416 -61.0578 0 
-77.3795 -48.24 0 
-105.476 -63.5624 0 
-78.0834 -43.7915 0 
-79.784 -48.1654 0 
-77.0632 -54.5917 0 
-87.6738 -49.5391 0 
-80.8992 -37.1795 0 
-110.672 -46.3489 0 
-69.5769 -63.0117 0 
-70.1935 -23.5849 0 
-106.086 -30.7788 0 
-60.714 -37.6075 0 
-52.6503 -65.6266 0 
-77.6794 -53.3344 0 
-71.9748 -62.3822 0 
-105.687 -46.1615 0 
-71.2387 -34.3801 0 
-118.76 -50.1864 0 
-59.47 -55.1766 0 
-99.7177 -57.9339 0 
-91.3236 -47.4396 0 
-43.5911 -67.2586 0 
-91.1761 -70.6844 0 
-87.6132 -52.6809 0 
-82.6471 -59.2364 0 
-85.2673 -46.8554 0 
-116.117 -52.3101 0 
-110.776 -38.0195 0 
-49.0013 -59.4118 0 
-85.4697 -33.9688 0 
-98.6243 -73.9915 0 
-123.532 -37.5799 0 
-73.5267 -24.2723 0 
-110.451 -50.2474 0 
-60.0234 -10.2063 0 
-88.5326 28.8785 0 
-40.2166 -3.0356 0 
-90.794 -2.10828 0 
-94.6261 -1.46436 0 
-68.1647 -60.9446 0 
-69.3015 9.08724 0 
-74.0372 -38.8356 0 
-66.7361 5.93157 0 
-94.714 -47.7282 0 
-52.7981 -50.4762 0 
-75.8834 -42.0414 0 
-127.352 -30.7711 0 
-73.1012 -6.36614 0 
-58.4642 5.34011 0 
-108.933 -54.3989 0 
-66.0525 -2.71464 0 
-92.7067 -4.48581 0 
-95.5737 28.6276 0 
-104.891 -16.7059 0 
-88.1559 35.2377 0 
-86.764 -11.4761 0 
-119.91 16.817 0 
-73.1389 -0.167774 0 
-52.7393 8.4134 0 
-103.115 -9.69281 0 
-60.5457 -31.8669 0 
-73.3923 10.0293 0 
-61.0411 5.30173 0 
-69.3742 -9.96561 0 
-99.4425 -20.8852 0 
-50.2928 -42.5625 0 
-106.088 -30.4576 0 
-100.312 -2.53824 0 
-101.519 -15.4524 0 
-81.2616 -14.8028 0 
-73.3181 4.81144 0 
-48.385 -15.3492 0 
-63.0897 -52.0541 0 
-81.6424 9.89971 0 
-69.5525 -16.1999 0 
-92.5205 -6.18353 0 
-43.2474 -3.34036 0 
-89.5408 -47.7785 0 
-83.9927 -16.5166 0 
-71.7227 5.68442 0 
-96.3577 -26.4409 0 
-76.8438 -33.2173 0 
-109.478 -9.74016 0 
-41.8349 7.57016 0 
-114.433 26.0485 0 
-111.289 -53.9938 0 
-88.2443 15.4443 0 
-92.3144 12.6638 0 
-73.4779 -16.1566 0 
-98.732 5.55913 0 
-111.356 -10.5354 0 
-83.3289 -53.9471 0 
-89.3659 -35.1903 0 
-60.1475 -11.112 0 
-102.654 0.377097 0 
-78.5394 -17.3151 0 
-61.5482 11.8652 0 
-96.6681 -42.0293 0 
-114.755 -29.6744 0 
-42.1863 6.23131 0 
-97.9978 11.3617 0 
-66.3231 -19.5133 0 
-79.0006 -42.6439 0 
-96.8737 -28.5623 0 
-108.02 -6.4353 0 
-81.404 0.163656 0 
-94.3491 0.663917 0 
-58.2048 1.03627 0 
-49.5742 -0.392513 0 
-65.0616 -37.447 0 
-112.236 23.6703 0 
-89.7273 9.05787 0 
-109.207 -59.5674 0 
-86.1842 12.7793 0 
-72.361 -27.4261 0 
-49.2415 2.37594 0 
-76.6433 -48.7086 0 
-89.1217 -47.0487 0 
-129.385 -16.7311 0 
-117.441 -22.7861 0 
-84.5072 27.1424 0 
-55.518 -5.61434 0 
-44.7929 -6.50526 0 
-83.012 3.55403 0 
-81.081 -15.5487 0 
-65.3889 -11.5129 0 
-81.3146 -28.9885 0 
-61.978 -5.07217 0 
-98.2831 -9.70101 0 
-97.1147 -15.4931 0 
-86.1536 11.2695 0 
-109.731 -7.07921 0 
-71.9793 -7.52363 0 
-87.0151 8.85082 0 
-101.89 7.92317 0 
-85.7423 14.1009 0 
-93.0621 -50.7786 0 
-58.4834 11.5171 0 
-77.0723 -8.84561 0 
-105.511 -62.7698 0 
-40.2206 -9.33023 0 
-128.409 4.95215 0 
-61.0306 -40.0602 0 
-39.9325 -48.843 0 
-77.9523 19.9546 0 
-97.1061 -38.3012 0 
-82.1282 14.0913 0 
-59.9614 13.7793 0 
-80.5159 13.1661 0 
-79.3378 11.6354 0 
-100.987 10.5611 0 
-68.4316 -7.59044 0 
-63.7417 16.3786 0 
-83.8755 -64.0437 0 
-35.6471 -4.34776 0 
-95.8702 2.71092 0 
-59.1661 -47.9881 0 
-75.2743 -9.83726 0 
-70.3342 -18.5192 0 
-95.5012 -44.192 0 
-82.3381 -6.15626 0 
-90.336 0.854576 0 
-69.5603 -18.5768 0 
-101.077 27.1545 0 
-115.739 -26.5415 0 
-96.5578 -64.2399 0 
-111.101 -17.7815 0 
-123.927 -4.10444 0 
-97.5404 -8.92839 0 
-108.393 -55.3861 0 
-108.4 -3.33365 0 
-61.9301 12.3144 0 
-83.7775 -37.0184 0 
-61.4935 12.4454 0 
-107.494 -0.94044 0 
-80.9801 5.18173 0 