<VTKFile type="UnstructuredGrid" version="0.1" byte_order="BigEndian">
  <UnstructuredGrid>
        <Piece NumberOfPoints="8000" NumberOfCells="0" Time= "0.26">      <Points>
        <DataArray name="Position" type="Float32"  NumberOfComponents= "3"  format="ascii">

83.0871 37.5595 0 
83.4526 38.1038 0 
84.6857 1.78472 0 
86.5919 0.69682 0 
84.9251 38.154 0 
86.3338 4.49881 0 
84.4675 4.05093 0 
86.4206 4.01 0 
84.5545 16.9923 0 
85.7457 25.9006 0 
85.209 25.6938 0 
84.7398 34.0607 0 
86.1485 36.8826 0 
88.9971 38.0001 0 
86.7168 4.43584 0 
87.4744 3.50318 0 
88.1172 3.81132 0 
88.6433 2.03034 0 
87.7623 5.69156 0 
88.1199 7.01714 0 
88.8664 5.23331 0 
87.2747 7.78078 0 
88.9187 7.83074 0 
88.1804 17.3155 0 
87.6341 17.7846 0 
88.417 20.7279 0 
89.295 23.6139 0 
87.6284 24.6132 0 
88.3467 26.2277 0 
88.3033 28.3854 0 
88.2268 35.3229 0 
88.7743 33.6459 0 
88.2654 37.4144 0 
87.4943 35.8245 0 
88.2129 34.7399 0 
88.9022 37.2368 0 
88.0858 37.3497 0 
87.6176 37.4701 0 
86.9402 37.8957 0 
88.1552 37.7398 0 
88.5061 36.9712 0 
87.3008 38.7285 0 
91.5992 1.86093 0 
91.2172 0.868563 0 
89.7613 0.805479 0 
89.2169 38.4714 0 
91.226 1.59058 0 
91.1986 1.56873 0 
91.4855 1.27417 0 
90.978 0.950414 0 
91.3266 1.7158 0 
90.068 2.6076 0 
90.5241 3.25461 0 
91.4154 3.25654 0 
90.3177 2.08061 0 
89.9638 3.0808 0 
89.4812 2.757 0 
90.5695 3.69963 0 
91.5262 2.47103 0 
90.2253 2.43105 0 
90.3803 4.10325 0 
90.7096 6.45631 0 
89.6919 6.17433 0 
91.3935 5.75574 0 
89.601 6.57536 0 
90.576 7.70386 0 
90.0895 8.60036 0 
91.3537 8.08903 0 
91.595 7.36081 0 
90.837 9.46091 0 
90.5725 11.922 0 
89.5944 11.5547 0 
91.1641 13.6372 0 
90.1033 12.3874 0 
90.1913 16.1163 0 
90.1377 17.1214 0 
89.804 19.4404 0 
90.7309 17.6803 0 
89.6082 18.779 0 
90.5123 21.4111 0 
91.5777 21.9999 0 
90.6361 20.1971 0 
91.247 23.8782 0 
90.6737 25.3493 0 
89.2999 25.0348 0 
91.2264 28.4746 0 
90.556 30.264 0 
90.9504 27.3263 0 
91.7299 28.5944 0 
89.8943 28.078 0 
89.9648 30.5591 0 
90.9296 29.3335 0 
89.9172 31.3102 0 
90.0264 29.4678 0 
89.781 31.5468 0 
90.1672 32.6128 0 
91.2594 34.2844 0 
91.2276 32.5203 0 
91.2746 37.3893 0 
91.4671 36.5318 0 
90.4013 37.1571 0 
89.6126 37.9268 0 
91.1523 35.4019 0 
91.4593 36.5642 0 
91.5872 34.5592 0 
89.5031 37.0159 0 
90.5366 38.0277 0 
89.3427 37.9431 0 
89.9904 2.15158 0 
91.3209 38.7019 0 
90.6992 37.0696 0 
93.6548 0.64883 0 
93.3572 0.263643 0 
93.2849 0.100177 0 
92.1217 1.73176 0 
92.6008 0.147261 0 
92.1496 1.52133 0 
93.7764 0.250784 0 
93.7536 0.823205 0 
91.7701 38.6883 0 
93.9526 0.144095 0 
92.78 0.617 0 
93.8938 1.42922 0 
92.8551 38.9839 0 
92.0173 1.07946 0 
93.04 3.30606 0 
92.6073 2.26431 0 
93.6314 3.67786 0 
92.7962 4.04218 0 
94.0491 3.09202 0 
94.0285 2.76855 0 
94.0446 3.67542 0 
94.2977 4.19257 0 
92.5937 3.18816 0 
93.9323 2.85125 0 
93.8957 5.24076 0 
93.3572 2.18973 0 
92.9275 3.83956 0 
93.3587 3.18453 0 
92.6067 4.94043 0 
93.82 7.08683 0 
92.4686 5.9032 0 
93.6278 4.95956 0 
93.9116 5.89516 0 
93.6538 4.57739 0 
92.5771 5.76921 0 
93.3176 5.95437 0 
93.4023 6.37658 0 
94.1472 5.1453 0 
92.0383 5.1809 0 
94.0993 5.57602 0 
93.3078 4.58035 0 
92.4891 4.82845 0 
93.2484 8.9148 0 
92.2667 8.92924 0 
92.4421 8.74086 0 
93.186 7.80294 0 
93.2659 9.07166 0 
93.1843 9.63815 0 
92.668 9.46634 0 
92.7043 8.93884 0 
92.8477 8.64838 0 
92.13 8.60386 0 
93.6165 9.23599 0 
93.638 8.57199 0 
93.9077 7.45759 0 
93.1071 7.32243 0 
93.882 7.13245 0 
93.1042 11.8143 0 
92.0907 10.8483 0 
93.3301 11.6583 0 
92.5117 11.171 0 
94.2854 11.4785 0 
92.9365 10.5861 0 
93.6948 12.0865 0 
93.5781 10.5861 0 
93.4832 11.3952 0 
92.6475 9.67028 0 
92.3475 10.5138 0 
93.8163 10.4785 0 
91.8613 11.4256 0 
92.6686 13.4439 0 
91.7395 13.9474 0 
94.1008 14.5908 0 
93.9881 13.0246 0 
91.9001 14.5729 0 
93.2695 13.007 0 
92.2772 13.2305 0 
94.0919 14.2217 0 
92.1267 12.5221 0 
92.8329 13.5036 0 
93.1011 14.5806 0 
93.7891 14.7189 0 
94.0845 17.5137 0 
91.5769 16.8457 0 
93.8235 15.3957 0 
94.1001 16.3524 0 
93.5247 15.943 0 
91.6784 15.9517 0 
94.1409 16.796 0 
93.4945 16.0406 0 
92.6135 15.2848 0 
92.8158 16.496 0 
93.9188 17.9267 0 
93.3925 17.5834 0 
93.253 18.954 0 
92.67 17.6965 0 
92.5068 19.3937 0 
94.3126 19.1749 0 
92.676 19.2862 0 
93.3294 18.0284 0 
93.6225 20.8812 0 
93.2589 22.1812 0 
93.5723 20.183 0 
94.0053 24.7638 0 
92.0839 24.2568 0 
93.6836 23.3571 0 
92.8433 23.842 0 
93.707 26.5897 0 
92.3639 27.2059 0 
92.4656 27.6578 0 
92.6502 25.7008 0 
92.9786 26.0269 0 
92.3506 26.3532 0 
94.4144 28.1526 0 
94.2733 27.9036 0 
93.1691 29.6284 0 
92.8911 28.9492 0 
94.1142 27.7992 0 
92.7334 28.3775 0 
94.3191 28.8334 0 
92.5849 30.4813 0 
93.1462 30.9359 0 
93.522 29.762 0 
94.1119 30.4738 0 
92.8611 31.3398 0 
93.5826 32.1915 0 
92.6689 32.2594 0 
93.8795 31.5354 0 
94.1324 29.8268 0 
93.2031 32.116 0 
93.5981 29.9557 0 
91.9045 31.7368 0 
93.1697 33.4116 0 
93.7258 32.767 0 
92.9389 32.2448 0 
93.4056 32.5742 0 
94.1997 32.6409 0 
93.1234 33.5867 0 
93.2628 32.667 0 
93.872 34.2016 0 
92.4716 34.1648 0 
93.1404 33.4823 0 
94.2325 33.9555 0 
93.4463 33.087 0 
92.9881 34.1788 0 
92.1545 33.9397 0 
92.1118 32.789 0 
93.3709 34.7773 0 
93.7864 35.5602 0 
93.5189 36.3566 0 
93.7469 36.5302 0 
93.8456 35.3589 0 
94.0095 34.4584 0 
93.2171 34.623 0 
92.0862 35.4704 0 
92.156 36.888 0 
93.7035 37.996 0 
92.2808 39.2758 0 
92.1829 37.539 0 
91.9825 38.0565 0 
92.9734 38.4454 0 
93.104 38.2853 0 
92.0106 38.6279 0 
93.7371 38.7877 0 
96.1512 1.59002 0 
96.6775 1.17304 0 
94.9928 1.7048 0 
95.276 39.7532 0 
95.7817 1.85842 0 
94.7855 0.791148 0 
94.543 0.823726 0 
96.6215 2.07016 0 
94.9006 0.519654 0 
96.0227 0.770775 0 
94.5473 2.60397 0 
94.721 0.606246 0 
94.9799 1.01664 0 
96.7063 38.5852 0 
95.6965 38.8092 0 
96.2524 1.80455 0 
94.8416 0.627517 0 
96.1233 37.701 0 
96.3319 1.45913 0 
94.6913 0.856431 0 
95.0504 0.513401 0 
95.1937 1.53288 0 
94.5241 2.4175 0 
94.9905 38.9032 0 
96.0232 38.3231 0 
96.198 3.0394 0 
94.4143 2.7004 0 
96.1495 2.47899 0 
95.4999 2.20719 0 
96.4631 3.92855 0 
94.439 2.67276 0 
95.6561 3.89908 0 
94.3674 3.40101 0 
96.6389 3.41582 0 
96.0769 3.27131 0 
96.3305 3.56852 0 
96.3054 2.66229 0 
95.3273 3.79889 0 
94.8782 4.35523 0 
94.2807 3.78269 0 
95.1084 3.94031 0 
96.0521 3.54678 0 
94.2783 3.18983 0 
94.3352 6.25603 0 
96.5161 7.06767 0 
94.5555 7.05625 0 
95.569 5.14337 0 
94.3825 5.10839 0 
94.5046 6.65029 0 
96.1255 4.81697 0 
96.6591 7.05535 0 
94.4709 6.81151 0 
96.172 6.17026 0 
95.5813 5.42261 0 
95.9495 5.23534 0 
94.9426 5.43492 0 
94.8059 6.90354 0 
95.8999 4.47263 0 
96.6656 6.89708 0 
96.2891 6.35292 0 
95.2643 6.36956 0 
96.3292 5.82342 0 
96.0907 7.25979 0 
96.0954 8.88512 0 
96.0516 9.14823 0 
94.3417 8.78468 0 
95.0992 7.39646 0 
94.8238 9.60722 0 
94.571 9.61397 0 
94.6963 7.7444 0 
96.3143 7.1972 0 
94.8438 8.91084 0 
94.7565 7.49898 0 
95.3117 8.90386 0 
95.5062 7.89193 0 
96.1277 7.40004 0 
95.5156 8.53935 0 
94.441 8.88454 0 
96.0671 8.70904 0 
95.1096 8.05831 0 
94.4687 9.13375 0 
96.5612 7.27482 0 
95.1347 8.33502 0 
95.8049 8.78664 0 
96.2666 7.44513 0 
95.8311 8.35722 0 
95.7999 7.81008 0 
94.7582 7.56313 0 
94.691 9.70739 0 
95.6611 10.5758 0 
95.4567 10.9435 0 
96.5065 12.1202 0 
95.5113 9.68846 0 
95.4251 10.1491 0 
95.9329 10.5888 0 
95.2077 11.0628 0 
96.0366 11.5163 0 
96.091 10.7476 0 
94.4819 10.8948 0 
96.1215 11.5504 0 
96.6329 10.7252 0 
95.4903 10.088 0 
95.0924 11.5876 0 
94.5011 9.973 0 
95.9469 10.484 0 
95.6918 10.0443 0 
96.1019 9.99298 0 
95.5096 9.9217 0 
96.6255 11.1346 0 
96.1574 10.4662 0 
94.9153 11.6825 0 
96.4024 11.7039 0 
96.1395 10.5583 0 
95.7628 11.0948 0 
96.7495 10.1137 0 
94.2556 12.1112 0 
94.383 10.2078 0 
94.4151 12.5981 0 
95.0013 12.9792 0 
96.8089 14.3711 0 
95.1499 12.5471 0 
95.544 13.3148 0 
96.637 13.4489 0 
94.3884 12.6955 0 
95.855 12.49 0 
95.2548 14.2729 0 
96.3811 14.7575 0 
96.9498 14.2607 0 
95.2953 14.0141 0 
94.9926 13.7482 0 
95.8074 12.9418 0 
96.0312 12.9063 0 
94.174 13.2003 0 
95.5076 15.6172 0 
95.789 15.9899 0 
96.0223 15.7451 0 
94.6241 15.9722 0 
96.1508 16.7744 0 
95.9469 15.7994 0 
95.9712 16.215 0 
96.5292 15.9375 0 
96.6468 16.5269 0 
96.6977 16.9181 0 
95.0293 15.9167 0 
95.8698 17.1326 0 
96.0789 16.3075 0 
95.7606 17.1794 0 
94.528 16.3418 0 
96.4494 15.5782 0 
95.6798 16.9557 0 
96.3547 17.0705 0 
95.7005 16.1206 0 
95.5161 16.1644 0 
95.8455 14.8488 0 
95.0601 15.2375 0 
94.8799 15.6942 0 
95.2759 16.9981 0 
95.935 16.6781 0 
94.2206 17.4573 0 
95.8397 18.8447 0 
94.376 19.6676 0 
96.2253 19.2799 0 
95.7736 19.8431 0 
95.8941 19.3399 0 
96.1745 17.9542 0 
95.5942 17.8398 0 
94.6175 17.5994 0 
96.3731 18.9701 0 
95.1684 19.903 0 
94.6309 22.0045 0 
96.6851 21.4192 0 
95.6274 21.5102 0 
95.4576 20.3184 0 
96.3262 22.2345 0 
96.3787 25.3803 0 
94.3271 26.1584 0 
94.65 27.0444 0 
95.7884 27.6499 0 
95.8867 29.0665 0 
95.5523 28.8756 0 
96.2992 26.9018 0 
94.2026 29.2601 0 
94.8592 28.8804 0 
96.2532 28.454 0 
95.2099 27.9746 0 
94.7086 29.7174 0 
96.7211 28.4635 0 
95.7233 28.6509 0 
95.2252 28.8628 0 
95.8364 31.4629 0 
95.8284 31.7782 0 
95.2146 30.1722 0 
94.589 30.4795 0 
94.4632 29.8812 0 
95.9874 31.4828 0 
95.0604 31.466 0 
95.4238 31.3137 0 
96.3531 31.5032 0 
94.5593 30.314 0 
96.6176 30.1831 0 
95.4185 32.5 0 
95.1554 30.455 0 
94.5975 30.6103 0 
94.6832 32.4485 0 
95.3773 31.0204 0 
95.4797 29.997 0 
95.4378 30.4969 0 
95.8569 31.7627 0 
96.2854 31.5938 0 
95.1424 29.8209 0 
95.7051 30.8765 0 
95.8273 31.4379 0 
95.4582 33.0236 0 
96.5028 33.1505 0 
96.6375 34.4782 0 
95.5513 32.5636 0 
95.7231 34.1042 0 
95.8376 34.2535 0 
94.6865 33.0874 0 
95.7179 33.8078 0 
95.0784 32.431 0 
95.4542 34.3614 0 
96.4894 32.7715 0 
95.5639 32.8342 0 
96.1073 32.2768 0 
95.5878 32.6079 0 
95.6301 34.1489 0 
94.6372 34.9309 0 
94.8907 33.776 0 
94.9718 34.4661 0 
96.5066 34.1984 0 
95.7615 32.3587 0 
95.8908 32.9688 0 
94.2546 34.5784 0 
95.1605 34.9861 0 
96.4583 36.0056 0 
95.899 35.8872 0 
95.848 36.6012 0 
95.7806 37.096 0 
95.5907 35.7549 0 
96.0225 36.736 0 
96.1627 35.9171 0 
[...]
      <PointData Vectors="vector">
        <DataArray type="Float32" Name="Velocity" NumberOfComponents="3" format="ascii">

-231.477 -103.832 0 
-204.117 -67.0255 0 
-180.913 -28.5737 0 
-178.135 66.3161 0 
-241.161 -178.348 0 
-223.512 -142.097 0 
-203.071 -121.883 0 
-170.66 -121.526 0 
-189.308 -78.7206 0 
-123.642 114.549 0 
-189.12 -74.483 0 
-206.132 -80.7163 0 
-171.805 -46.1398 0 
-193.513 19.2936 0 
-181.138 10.3683 0 
-211.174 -117.401 0 
-146.504 100.304 0 
-220.622 -82.318 0 
-141.412 98.3868 0 
-172.323 -128.168 0 
-129.286 101.218 0 
-180.718 -111.66 0 
-157.601 -63.2122 0 
-160.227 -77.7007 0 
-140.094 109.875 0 
-171.853 -57.0138 0 
-163.551 -74.8539 0 
-123.615 81.4885 0 
-174.719 -52.2036 0 
-179.905 -68.3223 0 
-155.404 -56.4994 0 
-168.996 -18.725 0 
-174.753 -11.9338 0 
-135.969 -4.7453 0 
-162.812 -1.87895 0 
-161.446 -36.0067 0 
-133.074 15.5617 0 
-133.543 23.6833 0 
-176.286 4.72397 0 
-114.32 24.9077 0 
-181.228 -1.48196 0 
-177.692 42.1951 0 
-144.896 37.1386 0 
-115.729 56.5378 0 
-123.242 44.704 0 
-184.866 -141.523 0 
-176.054 -142.451 0 
-135.847 80.4735 0 
-188.923 -111.217 0 
-163.242 80.598 0 
-180.545 -122.634 0 
-184.746 -132.585 0 
-194.329 -104.345 0 
-172.79 -136.02 0 
-191.786 -112.619 0 
-187.135 -144.877 0 
-143.626 -118.958 0 
-137.684 83.4333 0 
-166.65 -89.9181 0 
-171.338 -76.0807 0 
-152.863 -93.0056 0 
-184.274 -87.4363 0 
-116.527 72.9227 0 
-179.489 -119.427 0 
-178.894 -111.363 0 
-162.784 -79.6404 0 
-193.119 -111.065 0 
-181.036 -80.0088 0 
-141.349 -134.859 0 
-183.642 -102.776 0 
-183.46 -84.4485 0 
-158.331 -74.6631 0 
-180.535 -52.2284 0 
-148.203 -67.777 0 
-108.538 103.295 0 
-149.363 -59.6175 0 
-147.517 -69.6739 0 
-201.769 -81.0532 0 
-180.969 -52.449 0 
-141.183 -88.631 0 
-176.709 -100.964 0 
-156.21 -51.3402 0 
-194.928 -88.6158 0 
-171.08 -23.1888 0 
-195.966 -82.8144 0 
-145.562 -52.0626 0 
-167.214 -79.9487 0 
-152.66 -53.0863 0 
-170.114 -39.1086 0 
-173.446 -44.1793 0 
-146.936 -36.934 0 
-163.896 -20.6878 0 
-163.13 10.3759 0 
-184.031 -37.8154 0 
-170.423 -57.3854 0 
-155.027 -10.6442 0 
-164.992 -37.8361 0 
-196.262 -68.0806 0 
-159.126 -48.7697 0 
-170.845 3.15863 0 
-204.088 -42.0197 0 
-171.62 -35.7019 0 
-177.903 -16.7898 0 
-137.371 1.95731 0 
-148.153 20.4295 0 
-116.462 60.3657 0 
-172.027 18.4123 0 
-138.097 -1.75147 0 
-134.493 30.4724 0 
-132.621 -147.88 0 
-143.965 32.3562 0 
-110.111 29.2328 0 
-175.947 32.6161 0 
-154.261 -148.989 0 
-83.2438 52.0811 0 
-161.828 -167.752 0 
-157.816 47.0059 0 
-169.655 -139.453 0 
-159.748 80.1137 0 
-178.409 -127.974 0 
-193.155 -128.442 0 
-125.408 56.2623 0 
-181.674 -130.658 0 
-184.419 -128.836 0 
-143.217 82.6624 0 
-155.582 -133.704 0 
-151.69 73.6591 0 
-122.738 81.1863 0 
-156.424 -62.8752 0 
-181.942 -82.4376 0 
-125.902 -107.95 0 
-148.784 -82.5074 0 
-164.057 -105.165 0 
-183.64 -139.673 0 
-130.384 76.6239 0 
-184.222 -106.51 0 
-134.185 -124.239 0 
-146.784 -91.8106 0 
-174.298 -96.0453 0 
-116.457 101.423 0 
-166.852 -73.6176 0 
-231.4 -104.654 0 
-161.164 -116.444 0 
-147.318 -112.998 0 
-183.643 -92.0783 0 
-133.634 -137.279 0 
-151.923 -63.0724 0 
-176.133 -111.002 0 
-139.807 -105.843 0 
-161.39 -117.952 0 
-168.792 -94.3789 0 
-129.423 -108.041 0 
-171.741 -106.665 0 
-189.806 -113.467 0 
-172.934 -96.922 0 
-140.295 -124.865 0 
-130.262 -122.341 0 
-172.029 -101.888 0 
-102.283 93.9233 0 
-159.116 -97.2045 0 
-156.404 -92.0002 0 
-183.349 -69.7396 0 
-149.339 -94.3072 0 
-140.57 -118.749 0 
-188.665 -80.002 0 
-173.805 -97.582 0 
-150.799 -45.7386 0 
-159.249 -115.933 0 
-131.678 -92.4407 0 
-176.983 -64.6741 0 
-151.872 -122.627 0 
-123.996 115.12 0 
-139.381 135.718 0 
-159.698 -105.224 0 
-121.264 95.9477 0 
-149.043 -97.6928 0 
-183.825 -117.489 0 
-144.958 -131.379 0 
-154.298 -61.596 0 
-176.055 -104.95 0 
-156.813 -83.968 0 
-166.972 -101.637 0 
-172.565 -118.054 0 
-167.094 -108.873 0 
-109.017 113.959 0 
-159.127 -56.7146 0 
-168.683 -103.509 0 
-129.901 -95.7788 0 
-184.911 -91.2017 0 
-170.899 -72.1337 0 
-127.51 -63.1569 0 
-150.957 -62.5519 0 
-118.114 142.498 0 
-131.328 -100.238 0 
-130.028 -73.5917 0 
-152.92 -88.8537 0 
-133.552 -82.8517 0 
-185.053 -83.6002 0 
-125.129 -70.542 0 
-144.84 -76.6719 0 
-153.329 -86.6499 0 
-190.979 -95.0534 0 
-157.739 -78.7579 0 
-161.092 -68.9382 0 
-162.713 -92.401 0 
-133.029 -61.0371 0 
-183.255 -54.5596 0 
-183.568 -39.4064 0 
-163.095 -77.6414 0 
-155.282 -71.1344 0 
-160.555 -56.8337 0 
-170.958 -76.1036 0 
-166.203 -64.6348 0 
-168.97 -68.9153 0 
-134.497 -80.7989 0 
-169.148 -80.0801 0 
-167.643 -63.1499 0 
-136.048 -35.7229 0 
-189.277 -70.9777 0 
-189.062 -82.1809 0 
-150.485 -81.1068 0 
-175.399 -45.7592 0 
-194.771 -69.372 0 
-172.884 -37.6232 0 
-135.66 -19.7725 0 
-168.652 -46.6289 0 
-160.724 -76.2696 0 
-134.942 -69.2982 0 
-151.7 -30.1539 0 
-154.183 -48.2888 0 
-166.422 -7.97129 0 
-179.692 -67.6822 0 
-175.597 -71.3754 0 
-144.303 -55.0125 0 
-185.792 -47.0626 0 
-156.555 -53.3105 0 
-159.482 -42.4097 0 
-139.578 -30.6895 0 
-186.523 -31.4183 0 
-181.742 -49.5761 0 
-183.671 -65.9857 0 
-129.959 -30.3908 0 
-175.037 -55.9209 0 
-150.806 -0.524894 0 
-137.653 -40.933 0 
-158.065 -24.2211 0 
-176.671 13.1103 0 
-177.536 -65.2375 0 
-146.084 -22.6442 0 
-178.826 26.8106 0 
-138.734 -40.3814 0 
-172.07 -7.4696 0 
-138.333 -30.3839 0 
-172.759 3.60335 0 
-161.573 0.925691 0 
-170.621 -8.30981 0 
-155.033 7.1388 0 
-167.347 27.62 0 
-144.598 21.9427 0 
-135.906 11.4364 0 
-159.234 22.3465 0 
-149.154 -5.29252 0 
-146.987 16.8642 0 
-109.914 -15.5859 0 
-154.247 -0.906551 0 
-167.068 -0.781124 0 
-104.992 -3.11845 0 
-153.283 18.0144 0 
-151.294 29.0429 0 
-126.287 8.38102 0 
-140.4 -22.7785 0 
-111.843 -23.5648 0 
-105.185 27.4748 0 
-162.775 48.4709 0 
-148.233 10.4044 0 
-109.214 46.9376 0 
-147.791 3.38457 0 
-125.68 20.4771 0 
-116.791 71.6843 0 
-215.58 -135 0 
-177.197 -164.08 0 
-94.9708 42.9733 0 
-169.947 -164.356 0 
-129.715 -145.681 0 
-162.268 56.3991 0 
-142.381 39.8326 0 
-188.077 -178.05 0 
-168.127 -150.98 0 
-127.294 -158.943 0 
-121.962 49.9384 0 
-146.24 -138.326 0 
-163.685 32.7245 0 
-110.973 43.5859 0 
-223.192 -120.239 0 
-210.56 -181.331 0 
-125.201 44.6502 0 
-166.595 57.7171 0 
-166.564 -154.35 0 
-144.798 -162.495 0 
-149.881 -144.88 0 
-139.004 14.7448 0 
-133.475 77.9589 0 
-109.184 -140.625 0 
-212.642 -185.841 0 
-139.157 44.622 0 
-159.412 35.7377 0 
-224.684 -73.6467 0 
-210.365 -96.82 0 
-210.033 -114.983 0 
-204.829 -130.6 0 
-204.519 -103.224 0 
-222.687 -120.759 0 
-119.717 -169.399 0 
-137.422 -107.944 0 
-166.33 -131.144 0 
-183.523 -141.12 0 
-149.378 88.7464 0 
-167.291 -132.404 0 
-115.619 53.0282 0 
-158.397 -150.249 0 
-159.21 -110.935 0 
-137.641 57.8275 0 
-138.518 -135.681 0 
-159.664 -148.732 0 
-141.057 45.6166 0 
-175.977 -133.396 0 
-202.759 -80.7827 0 
-218.647 -99.7599 0 
-149.023 -130.72 0 
-183.675 -135.512 0 
-179.617 -154.885 0 
-167.3 -153.622 0 
-182.399 -144.27 0 
-145.724 -125.131 0 
-160.039 -166.114 0 
-197.395 -61.7085 0 
-214.597 -65.6031 0 
-133.763 -91.2419 0 
-138.628 91.3617 0 
-150.451 -112.198 0 
-129.769 66.9431 0 
-164.214 -101.112 0 
-152.571 -115.879 0 
-134.492 -107.578 0 
-184.437 -85.3603 0 
-187.329 -106.1 0 
-191.734 -72.0461 0 
-168.451 -71.2414 0 
-124.273 -98.6605 0 
-133.841 -117.17 0 
-188.689 -77.0818 0 
-202.871 -111.159 0 
-164.898 -107.929 0 
-166.765 -91.0796 0 
-137.799 -69.5467 0 
-165.621 -104.057 0 
-150.29 -93.9409 0 
-190.614 -113.521 0 
-180.708 -139.145 0 
-148.201 -94.7552 0 
-187.581 -100.233 0 
-99.9484 -120.468 0 
-165.138 -83.1093 0 
-149.729 -154.134 0 
-179.663 -111.688 0 
-167.83 -69.2435 0 
-153.166 -103.776 0 
-146.018 -99.2895 0 
-158.282 -68.7343 0 
-167.653 -116.361 0 
-126.237 -120.681 0 
-158.389 -67.8094 0 
-131.985 -107.51 0 
-126.569 -85.8099 0 
-136.072 -122.225 0 
-161.328 -129.902 0 
-166.053 -112.875 0 
-169.733 -88.0587 0 
-145.244 -88.6153 0 
-161.001 -128.856 0 
-125.081 -114.93 0 
-154.264 -67.2881 0 
-136.805 -55.6919 0 
-148.829 -106.505 0 
-145.946 -89.4116 0 
-168.18 -67.227 0 
-130.432 -87.3373 0 
-137.997 -115.932 0 
-184.468 -102.608 0 
-190.462 -42.1113 0 
-107.299 -81.8736 0 
-123.765 -77.0831 0 
-152.93 -105.677 0 
-184.248 -72.9913 0 
-169.361 -67.2752 0 
-164.29 -61.9637 0 
-134.022 -80.2368 0 
-134.418 -61.9296 0 
-121.456 120.104 0 
-161.895 -86.3182 0 
-162.9 -104.461 0 
-165.804 -65.1648 0 
-116.522 105.237 0 
-144.825 -120.237 0 
-133.099 -87.7932 0 
-127.638 -87.4094 0 
-131.422 -94.3648 0 
-149.515 -56.6266 0 
-140.543 -96.5336 0 
-123.265 -82.6547 0 
-153.748 -43.5735 0 
-161.933 -80.5499 0 
-179.773 -59.2501 0 
-153.339 -47.8477 0 
-196.48 -55.0119 0 
-186.098 -57.9673 0 
-99.5095 -86.1852 0 
-129.884 -35.8923 0 
-146.66 -32.2356 0 
-139.316 -85.5348 0 
-128.599 -79.7769 0 
-121.841 -71.6928 0 
-135.252 -46.2348 0 
-172.657 -106.437 0 
-140.178 -44.4596 0 
-133.314 -49.1763 0 
-186.56 -47.1499 0 
-185.689 -34.7024 0 
-160.905 -89.969 0 
-191.767 -78.8788 0 
-157.337 -74.6856 0 
-150.971 -51.3103 0 
-129 -53.2108 0 
-147.965 -70.2205 0 
-129.789 -80.6755 0 
-135.868 -51.8895 0 
-141.396 -79.7742 0 
-158.874 -60.5857 0 
-151.762 -26.7606 0 
-164.608 -54.62 0 
-121.913 -44.7489 0 
-177.68 -49.6043 0 
-199.19 -73.6517 0 
-186.758 -50.3003 0 
-164.344 -83.3028 0 
-148.857 -94.1719 0 
-143.374 -46.6351 0 
-133.792 -59.3702 0 
-164.449 -32.54 0 
-139.456 -30.8876 0 
-198.67 -89.3812 0 
-172.397 -52.7698 0 
-191.624 -77.9122 0 
-146.796 -39.9208 0 
-151.835 -34.807 0 
-182.564 -55.9476 0 
-126.146 -89.0422 0 
-142.793 -34.5884 0 
-151.069 -76.4281 0 
-151.864 -69.9962 0 
-154.059 -75.3505 0 
-150.342 -41.0943 0 
-144.53 -61.2505 0 
-170.59 -33.1251 0 
-128.854 -53.0731 0 
-132.365 -71.9981 0 
-143.802 -23.3863 0 
-150.48 -21.0534 0 
-152.633 -45.0517 0 
-170.746 -42.8024 0 
-127.505 -41.8239 0 
-200.508 -45.0886 0 
-138.898 -32.0988 0 
-123.79 -42.5598 0 
-94.2056 -43.0654 0 
-145.405 -80.0797 0 
-171.963 -32.3803 0 
-140.07 -41.0177 0 
-180.28 -32.2909 0 
-188.653 5.83597 0 
-170.751 -18.4619 0 
-203.629 -15.6917 0 
-143.334 -34.7183 0 
-177.829 -41.0788 0 
-165.102 -23.9945 0 
-145.417 -14.9485 0 
-148.766 0.684932 0 
-142.648 -40.4951 0 
-185.303 -5.65663 0 
-147.601 -3.86716 0 
-137.166 -34.1657 0 
-169.509 -20.3115 0 
-157.005 -16.1257 0 
-151.055 16.2007 0 
-192.804 -11.472 0 
-175.611 10.6733 0 
-137.404 3.10845 0 
-174.894 -33.3557 0 
-134.806 -16.0717 0 
-156.382 -50.81 0 
-185.501 -23.86 0 
-165.661 -6.22622 0 
-159.788 -25.3242 0 
-147.757 -27.1311 0 
-158.466 -4.63129 0 
-153.54 -14.1742 0 
-148.105 -8.44272 0 
-125.581 -25.4529 0 
-161.522 -29.3889 0 
-195.573 -2.40411 0 
-168.118 -8.69282 0 
-153.869 -16.1324 0 
-138.388 -20.1165 0 
-160.4 10.5164 0 
-162.931 -2.65367 0 
-152.774 -36.7408 0 
-142.805 6.62792 0 
-166.06 51.2956 0 
-137.671 -49.0028 0 
-158.697 -15.357 0 
-156.551 41.4246 0 
-149.367 8.10873 0 
-156.001 -3.81181 0 
-149.743 14.0545 0 
-159.946 28.0898 0 
-91.6587 -21.7049 0 
-178.007 4.38969 0 
-134.229 14.3931 0 
-110.815 12.3632 0 
-80.8242 5.06997 0 
-125.11 6.98342 0 
-144.404 27.7152 0 
-142.662 6.60697 0 
-118.819 25.671 0 
-93.665 -6.37726 0 
-138.629 7.7662 0 
-113.22 31.779 0 
-183.282 -125.344 0 
-165.812 -184.059 0 
-144.112 -12.2181 0 
-99.9721 29.0498 0 
-124.026 -176.232 0 
-184.023 -139.441 0 
-184.238 -154.322 0 
-174.012 -141.128 0 
-202.85 -160.582 0 
-114.722 -169.474 0 
-112.235 19.6374 0 
-119.433 -175.368 0 
-167.98 -186.104 0 
-143.638 -198.225 0 
-110.828 -179.765 0 
-122.71 34.9221 0 
-143.171 -140.999 0 
-166.712 -143.81 0 
-184.135 -127.166 0 
-167.989 -136.818 0 
-184.826 -141.916 0 
-199.324 -143.249 0 
-207.322 -189.194 0 
-206.971 -116.349 0 
-176.464 -139.551 0 
-125.352 -160.92 0 
-113.59 60.6209 0 
-133.211 -161.875 0 
-144.086 59.9964 0 
-171.811 -176.909 0 
-109.077 62.6757 0 
-120.089 5.97527 0 
-123.603 15.9304 0 
-152.646 -173.628 0 
-137.333 33.8645 0 
-142.961 -182.109 0 
-111.282 -161.217 0 
-147.455 -149.034 0 
-125.589 28.8351 0 
-118.783 22.1055 0 
-111.121 40.2612 0 
-152.995 -169.673 0 
-136.709 -155.282 0 
-129.234 -181.068 0 
-150.457 -158.942 0 
-157.222 -130.163 0 
-180.326 -115.558 0 
-186.773 -74.8236 0 
-171.421 -143.238 0 
-174.907 -119.565 0 
-161.993 -81.0899 0 
-190.528 -120.475 0 
-190.185 -117.135 0 
-193.905 -94.5374 0 
-179.292 -106.029 0 
-174.985 -126.766 0 
-193.276 -155.749 0 
-140.986 -158.266 0 
-159.933 -169.654 0 
-124.563 -140.005 0 
-150.957 -152.458 0 
-148.796 -162.436 0 
-128.912 -136.118 0 
-146.478 -155.179 0 
-140.255 -148.246 0 
-137.194 -152.152 0 
-167.353 -121.788 0 
-180.588 -146.9 0 
-139.168 -165.754 0 
-163.494 -157.143 0 
-167.657 -117.813 0 
-148.795 -136.964 0 
-157.168 -148.756 0 
-138.695 -149.575 0 
-128.937 -145.516 0 
-162.396 -165.447 0 
-190.454 -115.337 0 
-194.287 -95.4257 0 
-162.338 -95.7517 0 
-152.684 -78.6272 0 
-190.927 -111.029 0 
-197.914 -116.283 0 
-192.724 -85.9006 0 
-178.051 -101.609 0 
-207.1 -94.0741 0 
-170.468 -91.1398 0 
-166.765 -132.402 0 
-188.756 -83.7459 0 
-169.985 -140.283 0 
-142.123 -92.3199 0 
-157.537 -124.434 0 
-140.134 -132.684 0 
-177.416 -121.645 0 
-129.221 56.6709 0 
-102.853 74.8846 0 
-172.246 -130.947 0 
-140.096 -115.78 0 
-179.909 -146.968 0 
-181.997 -132.068 0 
-148.193 -83.3856 0 
-105.565 -102.412 0 
-164.053 -91.055 0 
-145.239 -146.279 0 
-125.209 -90.828 0 
-107.882 70.0616 0 
-210.446 -149.51 0 
-169.102 -134.994 0 
-144.848 -132.899 0 
-187.07 -134.625 0 
-151.205 -131.028 0 
-172.488 -64.1018 0 
-175.839 -103.948 0 
-196.269 -82.8128 0 
-97.8193 72.0465 0 
-136.657 -114.75 0 
-123.517 -113.494 0 
-113.797 64.6718 0 
-155.064 -109.314 0 
-130.195 -109.835 0 
-147.665 -153.154 0 
-164.167 -92.4014 0 
-173.983 -140.443 0 
-142.236 -124.282 0 
-174.592 -137.38 0 
-133.517 -102.623 0 
-136.449 -114.793 0 
-135.154 101.823 0 
-163.287 -157.559 0 
-192.834 -101.998 0 
-170.748 -84.604 0 
-199.458 -91.6783 0 
-166.156 -98.7922 0 
-167.883 -73.0255 0 
-164.69 -85.997 0 
-139.436 -82.4025 0 
-158.654 -92.7088 0 
-174.007 -91.4411 0 
-190.409 -86.1278 0 
-168.435 -80.7728 0 
-162.976 -100.954 0 
-180.163 -109.268 0 
-178.07 -84.6165 0 
-166.193 -105.36 0 
-118.202 -92.283 0 
-180.564 -90.866 0 
-180.345 -96.2686 0 
-167.914 -63.9469 0 
-175.095 -121.888 0 
-163.016 -81.3756 0 
-128.284 -86.2818 0 
-129.025 -128.802 0 
-166.901 -142.641 0 
-131.028 -132.755 0 
-165.158 -100.518 0 
-165.029 -132.982 0 
-131.176 -95.6219 0 
-159.685 -79.7377 0 
-115.414 -90.7064 0 
-127.193 -111.151 0 
-114.953 -91.5084 0 
-132.11 -123.365 0 
-100.023 -95.2237 0 
-109.64 -134.825 0 
-160.916 -95.5353 0 
-144.868 -81.8932 0 
-141.404 -90.3673 0 
-131.571 -85.6979 0 
-164.155 -122.647 0 
-157.352 -97.3887 0 
-177.289 -115.563 0 
-175.866 -91.1546 0 
-111.931 -92.5973 0 
-171.723 -93.0913 0 
-123.708 -76.5276 0 
-147.561 -111.756 0 
-131.017 -96.6321 0 
-170.777 -112.347 0 
-143.246 -99.4114 0 
-151.735 -117.019 0 
-128.273 -135.529 0 
-190.976 -103.098 0 
-172.968 -116.741 0 
-157.846 -124.009 0 
-141.038 -103.99 0 
-122.336 -142.737 0 
-99.7846 -100.398 0 
-159.966 -85.6654 0 
-179.483 -98.0683 0 
-160.461 -80.5016 0 
-177.359 -101.774 0 
-168.496 -90.6765 0 
-185.705 -60.1388 0 
-190.945 -57.2501 0 
-164.896 -99.0616 0 
-170.07 -106.053 0 
-133.107 -126.953 0 
-171.252 -124.82 0 
-145.463 -133.999 0 
-176.621 -113.846 0 
-120.196 122.55 0 
-130.875 -52.8196 0 
-119.28 -80.3428 0 
-163.319 -134.692 0 
-117.347 -127.909 0 
-169.6 -111.77 0 
-120.828 -72.9783 0 
-164.893 -86.0144 0 
-129.088 -105.159 0 
-124.635 68.6745 0 
-133.476 -97.4353 0 
-159.883 -123.678 0 
-180.018 -127.478 0 
-141.69 -86.219 0 
-164.163 -130.382 0 
-153.756 -117.626 0 
-184.19 -76.988 0 
-149.421 -80.2766 0 
-167.744 -110.298 0 
-161.646 -81.4442 0 
-149.787 -74.806 0 
-151.96 -124.202 0 
-144.069 -108.591 0 
-165.017 -89.5691 0 
-147.193 -58.9391 0 
-154.94 -85.9662 0 
-140.167 -59.993 0 
-141.524 -84.2079 0 
-177.581 -79.4093 0 
-149.182 -125.209 0 
-98.3495 -71.7809 0 
-155.975 -82.3347 0 
-125.11 127.946 0 
-184.972 -78.6888 0 
-175.746 -78.9293 0 
-146.992 -127.162 0 
-164.576 -106.621 0 
-150.133 -106.512 0 
-161.406 -70.6732 0 
-176.157 -79.3177 0 
-194.857 -69.6847 0 
-198.077 -71.4246 0 
-186.572 -67.5089 0 
-151.072 -68.4649 0 
-124.374 -62.9196 0 
-143.282 -68.4344 0 
-145.287 -71.7397 0 
-123.379 -114.619 0 
-122.974 -91.1901 0 
-109.264 -96.9903 0 
-101.951 -60.6274 0 
-171.428 -92.4318 0 
-224.377 -104.928 0 
-140.828 -65.0859 0 
-146.317 -95.7986 0 
-146.249 -109.509 0 
-156.692 -69.6582 0 
-154.53 -87.0981 0 
-134.936 -97.1942 0 
-128.871 -83.5645 0 
-139.165 -87.5372 0 
-154.117 -69.9665 0 
-113.734 -90.4899 0 
-159.463 -84.6321 0 
-154.767 -99.0985 0 
-118.102 -96.798 0 
-121.7 -117.338 0 
-141.516 -77.3207 0 
-150.871 -100.191 0 
-172.836 -73.8416 0 
-126.091 -78.427 0 
-142.519 -79.0645 0 
-118.665 -77.6139 0 
-112.51 -95.5027 0 
-169.58 -87.4792 0 
-182.495 -71.7798 0 
-146.795 -90.152 0 
-141.126 -76.9779 0 
-162.367 -91.5853 0 
-152.997 -99.8104 0 
-136.869 -88.3733 0 
-100.364 100.435 0 
-135.566 -89.1219 0 
-190.718 -65.8796 0 
-148.889 -60.6799 0 
-102.867 -86.5298 0 
-127.992 -62.7072 0 
-107.853 -93.9625 0 
-172.055 -39.3401 0 
-166.058 -60.4995 0 
-139.255 -78.621 0 
-128.015 -70.9128 0 
-143.101 -69.4908 0 
-135.091 -44.3535 0 
-120.082 -108.516 0 
-174.498 -34.6155 0 
-141.347 -82.5295 0 
-108.115 -93.2431 0 
-156.585 -108.24 0 
-121.347 -71.6254 0 
-146.908 -92.7916 0 
-119.663 -85.2653 0 
-146.73 -81.9292 0 
-161.353 -71.9572 0 
-119.403 -100.438 0 
-161.642 -78.7789 0 
-136.634 -96.9839 0 
-126.325 -88.7055 0 
-164.06 -56.577 0 
-123.753 -76.6553 0 
-138.057 -83.9933 0 
-133.152 -79.4287 0 
-151.062 -80.8099 0 
-165.434 -45.5506 0 
-154.017 -53.4427 0 
-116.384 -80.7961 0 
-186.341 -71.0432 0 
-134.957 -90.0539 0 
-105.593 -86.1691 0 
-136.741 -57.7514 0 
-141.378 -65.7859 0 
-153.882 -80.1727 0 
-141.291 -42.8997 0 
-139.267 -85.6333 0 
-149.893 -76.7048 0 
-163.658 -90.7998 0 
-168.271 4.14033 0 
-172.867 17.1855 0 
-171.573 -39.0767 0 
-117.638 -49.3244 0 
-110.171 -60.4679 0 
-171.829 -78.9675 0 
-110.509 -47.3051 0 
-142.913 -91.2566 0 
-199.441 -61.6367 0 
-135.52 -57.017 0 
-140.24 -60.0612 0 
-156.058 -28.4564 0 
-133.771 -43.6949 0 
-178.223 7.05144 0 
-156.393 -60.7043 0 
-145.717 -75.9399 0 
-150.314 -62.1237 0 
-137.748 -14.466 0 
-149.639 -21.3393 0 
-104.696 -44.6734 0 
-160.284 -55.2104 0 
-129.258 -52.2433 0 
-127.218 -54.2944 0 
-144.742 -46.2432 0 
-167.261 -66.9314 0 
-150.393 -10.5138 0 
-163.231 -30.8188 0 
-151.652 -23.6606 0 
-126.51 -32.7168 0 
-156.241 -76.8717 0 
-126.755 -35.3203 0 
-162.297 -62.8879 0 
-178.752 -64.3168 0 
-193.395 -43.2382 0 
-168.913 -49.4249 0 
-157.704 -51.7922 0 
-139.277 -49.9378 0 
-138.548 -41.0906 0 
-200.18 -15.6637 0 
-172.359 -49.4927 0 
-104.258 -37.3668 0 
-159.412 -28.1349 0 
-114.711 17.8497 0 
-183.156 -81.362 0 
-138.002 -46.9327 0 
-163.578 -68.5454 0 
-141.504 -4.78624 0 
-137.487 -60.259 0 
-156.616 -32.3875 0 
-142.383 -38.3389 0 
-130.747 -63.7556 0 
-165.599 -65.3388 0 
-137.641 -74.6281 0 
-124.311 -3.23401 0 
-106.816 -42.118 0 
-106.629 -36.1385 0 
-125.898 -47.9536 0 
-144.336 -61.8493 0 
-161.956 -32.36 0 
-130.203 -54.6276 0 
-114.456 -18.8036 0 
-117.779 -12.0713 0 
-114.241 -25.3706 0 
-146.958 -0.0407091 0 
-121.918 -0.274351 0 
-139.42 1.17973 0 
-138.743 -52.908 0 
-132.574 -34.0432 0 
-131.616 -18.829 0 
-134.595 -22.627 0 
-172.508 -40.5799 0 
-137.116 -24.1377 0 
-141.097 -64.1241 0 
-141.009 -45.37 0 
-111.998 -8.07445 0 
-134.71 3.18661 0 
-142.962 -6.31682 0 
-136.529 -23.0731 0 
-145.661 -39.3781 0 
-125.855 -49.5991 0 
-172.68 -15.5891 0 
-168.04 -20.746 0 
-180.086 -31.7581 0 
-157.337 5.9871 0 
-109.037 -13.1759 0 
-114.072 12.2272 0 
-153.221 -2.55924 0 
-133.165 -15.7482 0 
-117.518 18.9791 0 
-114.93 -11.1596 0 
-132.126 -35.4655 0 
-112.332 -39.5983 0 
-122.946 -15.6408 0 
-149.978 2.62318 0 
-122.14 -0.893267 0 
-114.9 -25.3866 0 
-120.201 -33.139 0 
-136.141 3.5849 0 
-154.23 -27.1946 0 
-138.366 -1.31711 0 
-183.693 -55.7484 0 