<VTKFile type="UnstructuredGrid" version="0.1" byte_order="BigEndian">
  <UnstructuredGrid>
        <Piece NumberOfPoints="8000" NumberOfCells="0" Time= "0.245">      <Points>
        <DataArray name="Position" type="Float32"  NumberOfComponents= "3"  format="ascii">

87.7854 1.14024 0 
86.8727 0.852193 0 
88.7445 2.24557 0 
87.9961 1.60556 0 
88.1328 3.31719 0 
87.5293 5.05629 0 
87.2682 17.4209 0 
88.7609 25.7236 0 
87.8136 25.4257 0 
88.3025 32.7344 0 
87.4119 33.066 0 
90.3729 39.2311 0 
91.4542 39.507 0 
90.2374 0.378957 0 
89.1518 2.51972 0 
90.2274 4.63062 0 
91.3077 3.65405 0 
89.6689 5.72897 0 
90.3406 6.54663 0 
89.4751 5.1085 0 
91.4899 6.23337 0 
90.74 7.79889 0 
89.852 8.47278 0 
91.2507 8.67925 0 
90.9128 17.3925 0 
89.9651 17.9148 0 
90.4131 20.4945 0 
91.2982 23.2587 0 
90.2727 24.5424 0 
90.0615 25.8539 0 
91.2012 27.6427 0 
90.4767 27.8284 0 
91.7739 30.5903 0 
91.4911 32.0367 0 
90.412 33.8058 0 
90.6768 36.1431 0 
91.6446 36.588 0 
90.0721 36.727 0 
89.3166 38.6439 0 
90.52 38.9728 0 
91.1846 38.9032 0 
90.9287 36.9018 0 
90.2956 2.15309 0 
92.3693 38.6923 0 
92.3882 0.605701 0 
91.6934 1.60102 0 
91.8949 0.658614 0 
93.2716 0.304912 0 
92.2401 0.98022 0 
92.8653 1.65874 0 
94.0418 0.0735084 0 
93.4213 0.835311 0 
92.3307 3.76526 0 
93.3976 2.24947 0 
92.3237 2.73446 0 
93.235 4.0118 0 
93.5849 4.37991 0 
93.1443 3.32989 0 
92.0277 2.06599 0 
93.8061 3.28148 0 
92.2154 4.06578 0 
91.8223 4.00253 0 
92.6573 3.51338 0 
93.9831 3.13287 0 
92.0108 4.88309 0 
92.9896 2.86087 0 
93.5479 7.04847 0 
92.5788 5.04909 0 
94.269 5.98853 0 
93.6599 7.74584 0 
93.0749 8.04506 0 
92.2721 9.38355 0 
93.8035 9.23965 0 
92.2315 7.30953 0 
92.889 12.3635 0 
93.3887 10.0471 0 
94.1958 11.3824 0 
92.1107 11.821 0 
93.5273 14.0923 0 
92.7515 13.0671 0 
92.7543 16.0648 0 
92.6938 17.2607 0 
91.956 19.6241 0 
93.216 19.9213 0 
92.9039 17.7634 0 
91.9175 19.2067 0 
92.7024 21.0761 0 
93.3569 21.1224 0 
93.2192 23.8366 0 
94.1379 23.8945 0 
92.8801 24.7652 0 
93.5917 27.653 0 
92.5097 27.4123 0 
92.0156 25.0565 0 
92.3403 29.3671 0 
93.0887 27.8758 0 
93.499 30.7169 0 
92.9649 29.5525 0 
92.5046 31.621 0 
94.2067 30.4959 0 
93.779 34.8709 0 
93.4115 31.9352 0 
92.5199 33.7042 0 
93.8546 34.3997 0 
92.8435 34.5394 0 
93.5743 36.2744 0 
94.0445 36.1027 0 
93.7819 36.6711 0 
92.9554 37.2552 0 
94.2557 38.2388 0 
92.6352 38.0541 0 
93.8469 39.3393 0 
91.8871 38.515 0 
95.5573 1.78269 0 
95.2437 1.51511 0 
94.8047 0.571811 0 
96.3995 1.34793 0 
94.7937 0.870126 0 
96.2196 2.47327 0 
94.2723 1.42544 0 
96.015 1.90494 0 
96.0222 0.997236 0 
94.6429 38.3532 0 
96.0179 0.270789 0 
95.376 0.970292 0 
95.8599 0.584215 0 
96.6738 4.73188 0 
95.8372 1.99795 0 
94.5593 2.96811 0 
94.1563 3.05871 0 
96.4853 4.3693 0 
94.82 3.27768 0 
96.6776 2.36637 0 
96.5915 3.94973 0 
96.0858 1.9825 0 
96.675 2.19066 0 
96.5382 2.41283 0 
94.3142 4.08758 0 
96.6826 2.57916 0 
95.8284 3.60595 0 
94.1388 2.53678 0 
94.0646 3.36994 0 
96.641 2.28689 0 
95.6936 4.38152 0 
95.2239 2.08652 0 
96.2096 2.7921 0 
94.7416 2.35838 0 
95.3511 6.02413 0 
95.1687 4.83305 0 
95.2117 6.79027 0 
96.3524 4.98136 0 
95.8676 5.62797 0 
95.1725 5.66874 0 
96.281 4.88304 0 
96.1941 4.49554 0 
96.023 6.04334 0 
94.5229 6.75408 0 
95.2388 4.97617 0 
95.9942 4.7096 0 
96.4827 4.79335 0 
95.4583 5.30134 0 
96.8033 6.51318 0 
96.4535 6.36571 0 
95.864 6.74665 0 
95.7933 6.13505 0 
94.7178 5.82287 0 
96.1009 7.92455 0 
95.6815 9.23165 0 
95.7482 7.29473 0 
96.671 7.6535 0 
95.2505 9.52141 0 
95.3188 7.80057 0 
94.3081 8.76286 0 
94.3576 9.33783 0 
96.6971 8.10882 0 
96.571 8.59909 0 
95.1673 8.39109 0 
96.1352 8.40326 0 
95.6021 10.1087 0 
95.0797 10.1462 0 
94.73 11.4145 0 
95.3188 9.95441 0 
95.2955 9.95119 0 
95.0926 11.7467 0 
96.2509 11.7128 0 
95.6538 10.3786 0 
95.4288 11.279 0 
95.298 10.4957 0 
95.1561 9.79758 0 
95.7411 11.1244 0 
96.6056 11.0725 0 
95.8675 11.6264 0 
95.545 9.87991 0 
95.4745 10.6875 0 
94.7612 10.784 0 
96.437 9.69236 0 
96.3992 11.6062 0 
96.5593 11.0209 0 
95.4432 14.1874 0 
95.6237 12.6132 0 
96.1393 12.7495 0 
94.3313 14.8392 0 
95.9805 13.6588 0 
95.608 13.0139 0 
95.1088 14.2892 0 
96.1417 14.6031 0 
94.412 13.1414 0 
95.0827 13.5275 0 
94.2683 14.8209 0 
96.1231 17.2672 0 
96.3022 14.9389 0 
96.4486 16.2768 0 
96.2497 16.7446 0 
95.6682 16.4363 0 
94.2453 16.4289 0 
95.6321 16.384 0 
96.9053 15.5068 0 
96.582 17.3309 0 
95.061 15.5212 0 
95.2106 15.0837 0 
96.1377 15.063 0 
95.0291 16.5014 0 
96.3165 17.6249 0 
96.5784 19.3881 0 
95.6364 18.6778 0 
94.8426 17.7124 0 
94.5994 19.2532 0 
95.8494 19.2965 0 
94.6075 17.5039 0 
95.1021 19.1876 0 
95.8966 18.1245 0 
96.2662 17.6646 0 
96.9111 21.3563 0 
96.0044 20.558 0 
95.1524 22.0518 0 
95.9473 22.6516 0 
95.5658 20.4122 0 
95.3439 22.8655 0 
94.7095 24.6371 0 
95.2398 23.1569 0 
96.2313 27.2499 0 
95.7016 25.1194 0 
95.8371 26.4882 0 
94.4112 26.7582 0 
94.8084 26.8857 0 
96.5009 25.9951 0 
95.881 26.9917 0 
94.9763 25.6822 0 
96.5038 26.0243 0 
94.8774 25.9765 0 
94.9644 29.5606 0 
95.592 28.7192 0 
95.6465 29.9579 0 
96.7319 29.0573 0 
95.2021 27.9025 0 
95.919 28.1322 0 
96.2082 30.1698 0 
95.7795 31.8809 0 
94.7066 31.1277 0 
96.6586 31.7836 0 
94.9235 32.6244 0 
95.482 31.5179 0 
94.9097 31.2962 0 
96.786 32.6684 0 
94.9203 32.249 0 
96.2731 33.9861 0 
96.281 32.4602 0 
96.1928 32.9091 0 
94.997 33.4543 0 
95.5497 33.5337 0 
96.5975 32.0534 0 
94.3903 33.3084 0 
95.6799 32.0323 0 
96.1851 33.0277 0 
96.3412 35.1035 0 
96.0283 35.0792 0 
95.1475 35.1434 0 
95.6453 34.5218 0 
96.5675 36.3304 0 
96.4117 36.482 0 
95.5624 36.3917 0 
95.4438 36.9977 0 
94.4119 36.7859 0 
94.2468 36.4401 0 
95.8044 35.3552 0 
95.5156 36.0728 0 
94.484 34.8071 0 
96.6284 37.5162 0 
96.1619 38.2868 0 
96.896 37.9603 0 
96.4042 38.8285 0 
96.4866 37.5923 0 
96.4768 1.15126 0 
97.8909 39.6274 0 
97.8723 39.3012 0 
98.4339 0.0194784 0 
99.1251 1.27436 0 
98.67 37.9294 0 
99.259 38.6369 0 
97.8548 0.427607 0 
97.2787 1.4047 0 
99.1613 1.45087 0 
98.8559 0.680513 0 
99.1157 1.70966 0 
99.1893 1.87531 0 
98.7198 1.67074 0 
97.8783 1.71783 0 
98.0015 0.857346 0 
96.9064 39.3746 0 
97.9595 0.800596 0 
97.3525 1.2219 0 
98.3976 1.64953 0 
98.3781 39.5133 0 
98.8678 2.85586 0 
97.0634 2.10618 0 
98.4585 4.48392 0 
98.5385 2.54573 0 
97.0345 3.72696 0 
98.0448 4.13335 0 
98.2725 3.36462 0 
97.1586 4.02411 0 
98.3345 3.22782 0 
97.4138 2.34427 0 
98.6786 3.05034 0 
97.3586 2.04663 0 
98.7866 2.37601 0 
98.2184 4.58821 0 
98.1775 4.27374 0 
97.5235 2.50437 0 
99.1606 3.1564 0 
98.4549 3.11386 0 
97.3853 2.12749 0 
99.3862 4.3589 0 
97.5588 2.66939 0 
98.8327 6.29483 0 
97.798 6.69901 0 
99.2839 5.18378 0 
98.9405 5.63648 0 
99.0801 6.53407 0 
96.9241 6.54879 0 
97.9203 4.91894 0 
98.8847 5.63948 0 
97.9865 6.14149 0 
98.8242 4.75221 0 
99.0171 5.25324 0 
98.7085 5.52452 0 
97.5846 4.82426 0 
97.1078 5.78204 0 
98.8112 5.60765 0 
97.9128 6.89119 0 
98.0095 6.92646 0 
97.1013 5.30622 0 
97.8818 6.10483 0 
98.782 5.07338 0 
97.571 7.03008 0 
98.7688 7.00934 0 
96.8104 4.84844 0 
98.0584 9.74361 0 
96.8235 7.86125 0 
98.384 8.25869 0 
97.8504 8.42884 0 
97.1803 8.94657 0 
98.8396 9.13773 0 
98.8638 8.21385 0 
97.2158 7.98082 0 
97.3575 8.46848 0 
98.6789 8.2756 0 
97.5966 8.67133 0 
98.1359 8.30151 0 
97.4085 9.38817 0 
98.8106 9.52879 0 
97.8825 8.69134 0 
98.538 7.42489 0 
99.0577 8.17572 0 
97.4368 9.21711 0 
97.6438 9.65217 0 
98.2163 8.64953 0 
98.093 9.52303 0 
98.5926 8.24431 0 
98.8529 7.95576 0 
97.6458 8.96072 0 
98.3394 7.68849 0 
99.322 7.94974 0 
98.3537 8.01516 0 
96.9529 8.71723 0 
98.8173 9.08472 0 
97.6885 10.1473 0 
97.5887 11.0207 0 
97.6703 11.7099 0 
97.7274 11.7898 0 
96.7293 9.85333 0 
97.5527 10.3133 0 
97.361 10.0927 0 
97.4889 10.8593 0 
99.0746 10.0429 0 
98.301 11.1515 0 
98.6831 11.38 0 
97.0609 9.9743 0 
98.2561 11.4234 0 
99.0946 9.95702 0 
96.905 12.0764 0 
97.7897 10.4632 0 
99.0365 11.2228 0 
96.8636 9.93062 0 
98.3587 11.334 0 
98.7321 11.7007 0 
97.7813 10.5308 0 
98.8661 11.1137 0 
97.7576 10.93 0 
98.7909 11.7653 0 
98.7836 11.3179 0 
96.9513 10.2437 0 
98.1689 11.1855 0 
99.1657 11.2788 0 
98.8923 10.6752 0 
96.8011 13.4102 0 
97.5506 13.4759 0 
97.0825 13.5894 0 
97.5885 13.7781 0 
98.8668 13.8691 0 
96.8184 13.3441 0 
98.0193 12.7791 0 
96.6736 13.4335 0 
99.0886 13.2649 0 
98.2372 12.679 0 
97.5608 12.2002 0 
98.3319 12.8914 0 
98.8686 13.7865 0 
97.2749 14.6989 0 
98.1908 12.4037 0 
99.0724 12.9148 0 
97.5661 12.4337 0 
97.6862 14.6276 0 
98.2746 13.5389 0 
97.2638 12.3277 0 
98.2152 12.9904 0 
97.9168 12.3035 0 
98.748 13.3524 0 
96.7373 14.1015 0 
96.8273 13.0725 0 
98.6248 15.9131 0 
98.7351 15.1525 0 
97.8279 16.3984 0 
98.6525 16.2494 0 
97.1622 15.888 0 
98.5212 17.1221 0 
98.1398 15.9123 0 
99.1808 15.8981 0 
98.0705 16.71 0 
99.3383 16.0108 0 
98.5931 17.1007 0 
98.9501 17.2544 0 
97.9091 16.1953 0 
98.4666 16.9135 0 
98.1402 15.2849 0 
98.989 15.9834 0 
98.5911 16.6978 0 
97.845 17.308 0 
98.3959 14.8713 0 
97.0982 16.0486 0 
98.6831 16.2357 0 
97.4673 15.1032 0 
98.449 17.2268 0 
98.7855 17.1887 0 
96.6598 16.7956 0 
97.9858 16.3882 0 
99.0225 16.6771 0 
97.7074 16.2707 0 
99.3059 15.9262 0 
98.0049 15.4012 0 
97.5056 15.7523 0 
98.7564 16.6073 0 
99.1627 17.0094 0 
98.1344 18.6248 0 
99.1473 18.8204 0 
99.2033 19.5372 0 
98.6037 18.5761 0 
98.9893 18.5512 0 
98.1619 18.8031 0 
98.3777 17.7934 0 
99.3169 18.9597 0 
98.5082 19.9266 0 
97.8219 17.7847 0 
97.7329 19.3084 0 
99.2141 17.5252 0 
97.5883 17.4132 0 
97.7261 19.7246 0 
96.8551 21.8094 0 
98.2543 21.1213 0 
98.2666 19.961 0 
98.9693 21.3197 0 
97.7083 22.3692 0 
97.8412 24.9621 0 
99.4809 24.9249 0 
99.2102 22.5597 0 
98.7899 23.5022 0 
99.3051 25.9198 0 
97.4479 27.4086 0 
98.3546 30.2708 0 
97.7425 30.1662 0 
98.8904 29.9856 0 
97.7773 29.653 0 
97.0971 28.3405 0 
97.2077 30.053 0 
98.5244 29.7609 0 
98.6215 31.3977 0 
98.225 31.0032 0 
98.8189 29.5588 0 
97.3238 31.2474 0 
97.4547 31.2977 0 
97.9368 30.9128 0 
97.7506 30.5863 0 
97.1094 30.5286 0 
97.9523 30.6755 0 
97.1601 32.1486 0 
98.4533 31.0315 0 
[...]
      <PointData Vectors="vector">
        <DataArray type="Float32" Name="Velocity" NumberOfComponents="3" format="ascii">

-226.265 -148.515 0 
-180.913 -28.5737 0 
-178.135 66.3161 0 
-228.661 -165.848 0 
-121.163 112.033 0 
-210.246 -129.108 0 
-226.492 -98.8132 0 
-173.16 -124.025 0 
-204.265 -93.6506 0 
-204.124 -67.0221 0 
-196.134 -67.4497 0 
-171.827 -46.1356 0 
-150.553 -12.2895 0 
-206.348 6.68812 0 
-168.303 22.9738 0 
-211.247 -117.437 0 
-176.753 -110.548 0 
-172.271 -126.809 0 
-218.161 -94.8066 0 
-180.746 -114.826 0 
-185.675 -145.013 0 
-149.896 -130.227 0 
-145.994 112.388 0 
-143.361 -84.6736 0 
-165.078 -126.382 0 
-142.615 -73.0988 0 
-159.71 -89.4516 0 
-184.874 -74.8255 0 
-121.116 88.9885 0 
-171.095 -101.548 0 
-171.972 -57.0425 0 
-170.983 -77.3257 0 
-169.896 -68.3438 0 
-145.525 -52.1989 0 
-174.492 -51.8116 0 
-155.663 -56.8596 0 
-165.918 -16.5843 0 
-186.986 -1.53845 0 
-150.969 -19.7453 0 
-146.46 -21.0137 0 
-133.076 15.5629 0 
-133.541 23.6807 0 
-176.29 4.70372 0 
-114.313 24.9339 0 
-179.043 -2.07702 0 
-117.918 63.8506 0 
-144.899 37.1396 0 
-120.309 50.8793 0 
-135.218 80.8803 0 
-144.012 102.807 0 
-153.282 85.5784 0 
-136.297 93.4044 0 
-132.328 97.243 0 
-188.043 -144.984 0 
-187.585 -115.435 0 
-189.33 -104.345 0 
-124.691 99.0685 0 
-180.2 -126.443 0 
-142.863 -87.8464 0 
-178.179 -111.361 0 
-126.73 -131.761 0 
-134.318 -89.3337 0 
-111.042 103.933 0 
-159.339 -100.802 0 
-132.434 -97.086 0 
-182.38 -135.262 0 
-180.794 -86.0938 0 
-166.678 -74.9373 0 
-174.644 -75.493 0 
-151.036 -68.7672 0 
-181.5 -50.86 0 
-137.143 -82.3582 0 
-187.592 -87.3788 0 
-164.507 -105.333 0 
-193.097 -112.223 0 
-161.304 -69.6563 0 
-178.139 -96.916 0 
-181.056 -80.0072 0 
-131.624 -119.872 0 
-185.779 -117.771 0 
-131.735 -68.1563 0 
-146.071 -78.7085 0 
-148.921 -66.052 0 
-141.222 -61.3393 0 
-150.276 -63.8588 0 
-194.275 -88.2485 0 
-160.631 -28.774 0 
-156.875 -69.2106 0 
-176.701 -86.4706 0 
-149.223 -51.8399 0 
-178.453 -35.2508 0 
-161.936 -21.9359 0 
-160.662 -17.9207 0 
-169.084 -41.0741 0 
-148.161 -4.37842 0 
-165.908 -56.1265 0 
-166.341 -24.3021 0 
-152.472 -25.2328 0 
-145.208 -33.7858 0 
-169.06 -52.8003 0 
-170.87 3.41785 0 
-167.123 -28.2787 0 
-162.904 -1.79042 0 
-148.707 -5.09967 0 
-132.02 1.86632 0 
-171.951 18.3522 0 
-196.174 -38.5915 0 
-152.369 -13.0408 0 
-139.928 28.2808 0 
-124.693 52.562 0 
-124.911 6.33344 0 
-142.874 21.9276 0 
-100.325 56.0211 0 
-112.171 29.4459 0 
-170.159 47.9826 0 
-129.003 25.5181 0 
-161.265 47.9191 0 
-139.266 29.3629 0 
-160.978 17.6339 0 
-135.133 -153.671 0 
-117.741 50.6596 0 
-98.0886 47.0548 0 
-148.615 -153.505 0 
-165.946 -176.47 0 
-138.418 70.2906 0 
-164.137 -147.378 0 
-136.954 -148.99 0 
-145.986 83.5558 0 
-137.11 85.1624 0 
-179.123 -131.716 0 
-111.22 83.6739 0 
-134.915 -135.26 0 
-130.423 57.0514 0 
-118.698 57.5866 0 
-182.075 -141.115 0 
-167.634 -117.792 0 
-160.653 -133.707 0 
-148.994 76.2159 0 
-178.197 -113.729 0 
-167.993 -90.1811 0 
-162.479 -95.1733 0 
-169.84 -117.899 0 
-106.073 95.212 0 
-126.06 66.6326 0 
-144.15 -63.9662 0 
-111.375 78.5443 0 
-172.906 -95.185 0 
-226.41 -89.6623 0 
-164.204 -111.454 0 
-152.336 -113.001 0 
-168.738 -91.9952 0 
-135.503 -101.539 0 
-171.076 -96.1041 0 
-144.804 -95.3624 0 
-146.472 -107.955 0 
-158.747 -104.287 0 
-121.494 117.608 0 
-131.847 138.474 0 
-136.125 96.0698 0 
-136.934 -98.2268 0 
-189.803 -98.4918 0 
-164.252 -98.1676 0 
-118.02 135.277 0 
-133.868 -109.895 0 
-112.972 -116.625 0 
-98.1553 93.8492 0 
-150.335 -102.121 0 
-145.059 -108.346 0 
-158.8 -102.134 0 
-163.894 -76.2068 0 
-148.79 -107.617 0 
-106.538 118.739 0 
-143.561 -127.359 0 
-134.464 -104.289 0 
-130.589 -103.781 0 
-174.372 -88.2072 0 
-184.628 -82.5904 0 
-123.641 -101.309 0 
-166.637 -52.2364 0 
-136.901 -107.651 0 
-168.856 -119.645 0 
-134.962 -116.42 0 
-139.301 -69.8309 0 
-135.253 -107.728 0 
-161.207 -89.3911 0 
-149.945 -83.0746 0 
-149 -90.7627 0 
-162.304 -104.362 0 
-178.796 -74.7364 0 
-184.174 -65.8111 0 
-149.83 -40.2218 0 
-154.258 -100.942 0 
-168.44 -88.5332 0 
-119.983 -85.877 0 
-158.328 -90.2325 0 
-148.241 -88.4932 0 
-164.492 -89.9558 0 
-123.119 -70.6767 0 
-157.925 -78.8663 0 
-135.319 -91.8794 0 
-115.147 -85.542 0 
-158.905 -98.4608 0 
-167.591 -100.106 0 
-157.44 -70.5693 0 
-144.572 -51.6724 0 
-185.946 -74.1351 0 
-167.329 -97.7669 0 
-137.366 -51.328 0 
-168.1 -82.6388 0 
-179.928 -81.202 0 
-140.324 -64.565 0 
-175.9 -57.1422 0 
-155.977 -49.7658 0 
-119.413 -58.9348 0 
-154.041 -64.263 0 
-146.678 -48.6434 0 
-157.335 -50.7169 0 
-125.355 -87.4394 0 
-155.977 -65.65 0 
-126.077 -45.2825 0 
-118.602 -72.8642 0 
-179.174 -67.2196 0 
-170.072 -68.6044 0 
-129.845 -70.3501 0 
-142.715 -80.0056 0 
-145.488 -76.1068 0 
-157.758 -78.7706 0 
-180.231 -73.6413 0 
-167.904 -42.3789 0 
-182.039 -24.4189 0 
-124.361 -70.5624 0 
-129.291 -19.6806 0 
-165.5 -41.906 0 
-161.177 -46.9573 0 
-163.201 -81.2813 0 
-175.999 -61.1363 0 
-136.7 -39.1786 0 
-147.436 -70.7887 0 
-161.843 -66.4987 0 
-158.956 -38.4202 0 
-151.521 -22.7213 0 
-184.348 -60.351 0 
-164.737 -82.681 0 
-149.177 -50.0365 0 
-185.822 -55.5776 0 
-165.514 -55.7626 0 
-161.585 -53.3121 0 
-128.382 -69.4834 0 
-179.778 -68.2123 0 
-164.517 -42.4109 0 
-153.657 -15.7151 0 
-171.546 -31.0511 0 
-177.226 -41.1502 0 
-129.185 -30.5937 0 
-125.05 -54.3315 0 
-181.295 -73.0884 0 
-143.749 -19.1982 0 
-172.908 -57.0435 0 
-145.829 -0.880234 0 
-170.652 -56.5891 0 
-161.74 -1.88905 0 
-128.406 23.9362 0 
-171.039 -55.6061 0 
-135.805 -21.6484 0 
-163.874 12.0431 0 
-141.249 -65.1131 0 
-143.746 -25.409 0 
-172.094 7.52879 0 
-143.343 -15.4064 0 
-115.511 -10.4565 0 
-161.353 15.9243 0 
-155.703 -22.6801 0 
-139.993 -26.2851 0 
-153.56 -26.7137 0 
-140.09 -7.8563 0 
-157.348 17.62 0 
-154.186 11.1818 0 
-152.536 10.9318 0 
-99.9564 -5.62173 0 
-164.225 14.0502 0 
-166.935 -12.9725 0 
-117.412 -0.184622 0 
-140.804 5.61725 0 
-93.0685 17.7409 0 
-166.294 14.0634 0 
-123.707 11.6277 0 
-125.401 -7.78024 0 
-118.19 40.2758 0 
-152.267 38.1759 0 
-90.4801 47.3744 0 
-117.042 -22.8967 0 
-112.515 32.1263 0 
-134.505 1.18115 0 
-137.423 18.3846 0 
-121.942 49.5345 0 
-131.084 60.5368 0 
-157.359 56.655 0 
-165.851 72.694 0 
-127.402 39.8567 0 
-163.854 32.0403 0 
-132.044 40.6549 0 
-110.517 48.9883 0 
-200.581 -129.992 0 
-172.197 -158.65 0 
-154.983 -169.365 0 
-127.24 -158.062 0 
-129.123 69.9841 0 
-108.606 30.9267 0 
-188.109 -182.049 0 
-153.936 25.1617 0 
-157.295 -148.42 0 
-124.206 46.1548 0 
-144.435 40.6883 0 
-136.207 -141.007 0 
-110.825 -170.515 0 
-113.903 37.0831 0 
-132.142 -138.243 0 
-203.414 -125.658 0 
-218.087 -120.254 0 
-218.037 -108.879 0 
-151.593 -159.018 0 
-139.013 -162.835 0 
-154.841 -116.162 0 
-106.183 -130.751 0 
-144.401 89.8516 0 
-132.475 -136.795 0 
-122.684 69.3585 0 
-136.11 53.9446 0 
-210.229 -77.8744 0 
-206.901 -91.9092 0 
-215.745 -107.982 0 
-192.775 -90.7827 0 
-127.795 -155.174 0 
-127.458 -102.945 0 
-113.335 -104.018 0 
-172.246 -146.083 0 
-152.439 -157.455 0 
-126.218 89.7514 0 
-157.642 -138.588 0 
-147.27 -150.126 0 
-153.883 -125.315 0 
-117.296 73.6338 0 
-148.196 -120.955 0 
-154.745 -153.623 0 
-161.009 -124.492 0 
-187.408 -71.7017 0 
-204.353 -84.7663 0 
-203.444 -64.9186 0 
-142.643 -123.052 0 
-168.728 -126.482 0 
-111.106 60.1919 0 
-169.693 -147.378 0 
-170.844 -145.659 0 
-131.718 -135.131 0 
-167.549 -63.7648 0 
-170.683 -99.0386 0 
-144.625 -89.2415 0 
-129.177 -112.223 0 
-117.193 -103.912 0 
-127.596 -103.28 0 
-148.778 -109.905 0 
-187.903 -101.164 0 
-142.177 -139.586 0 
-169.173 -91.271 0 
-169.857 -99.0934 0 
-178.512 -99.9866 0 
-127.248 -114.34 0 
-160.106 -127.386 0 
-126.042 -104.723 0 
-135.787 -112.793 0 
-140.455 -119.696 0 
-121.109 -80.1252 0 
-147.539 -153.614 0 
-155.445 -151.352 0 
-134.83 -139.184 0 
-180.318 -77.6766 0 
-176.761 -62.0502 0 
-153.571 -66.2752 0 
-152.896 -79.2672 0 
-143.229 -88.84 0 
-123.666 -84.0169 0 
-123.858 -104.063 0 
-177.586 -81.3314 0 
-149.922 -92.9598 0 
-114.103 -96.7226 0 
-166.512 -95.4601 0 
-143.826 -69.8683 0 
-122.243 -111.312 0 
-135.848 -107.257 0 
-136.143 -69.406 0 
-144.4 -82.6542 0 
-135.293 -83.6496 0 
-126.553 -99.93 0 
-150.08 -79.5698 0 
-144.877 -72.635 0 
-164.78 -91.6902 0 
-110.571 124.374 0 
-142.707 -84.8131 0 
-187.288 -88.9645 0 
-106.586 110.424 0 
-128.39 -94.4425 0 
-154.904 -73.1392 0 
-175.686 -51.7689 0 
-174.496 -96.7211 0 
-107.299 -69.0351 0 
-152.218 -98.9868 0 
-134.223 -94.2853 0 
-143.308 -58.7746 0 
-162.661 -111.366 0 
-124.266 -115.101 0 
-105.944 -58.0023 0 
-121.989 -102.519 0 
-150.154 -65.0171 0 
-121.585 -95.3682 0 
-156.058 -120.005 0 
-151.172 -97.8905 0 
-171.839 -73.0691 0 
-151.063 -129.933 0 
-127.353 -45.762 0 
-161.897 -76.1434 0 
-138.819 -101.531 0 
-147.95 -90.4192 0 
-140.995 -79.5159 0 
-129.84 -105.251 0 
-156.063 -54.4396 0 
-141.816 -81.872 0 
-124.827 -102.069 0 
-134.835 -66.6774 0 
-174.537 -97.6283 0 
-151.076 -47.7888 0 
-166.538 -74.5837 0 
-134.496 -40.6591 0 
-127.954 -85.4031 0 
-179.268 -72.9914 0 
-131.772 -22.2322 0 
-131.567 -71.0691 0 
-173.672 -67.3221 0 
-132.115 -31.306 0 
-131.736 -66.9572 0 
-135.987 -81.4312 0 
-135.213 -54.6509 0 
-127.372 -65.2041 0 
-175.416 -57.1745 0 
-180.716 -49.6189 0 
-146.012 -74.9857 0 
-136.107 -65.8354 0 
-170.599 -56.4933 0 
-119.241 -54.254 0 
-122.474 -72.7935 0 
-151.046 -80.2307 0 
-131.286 -92.1762 0 
-136.441 -79.4601 0 
-115.976 -75.9769 0 
-135.855 -81.5432 0 
-132.952 -73.4908 0 
-175.386 -68.5636 0 
-147.727 -57.8581 0 
-135.837 -66.4251 0 
-112.63 -59.3243 0 
-107.431 -77.5728 0 
-195.092 -80.0616 0 
-126.479 -74.7821 0 
-143.898 -55.6027 0 
-177.61 -39.6031 0 
-149.637 -61.0541 0 
-141.494 -86.4839 0 
-162.749 -47.5353 0 
-184.243 -65.6505 0 
-175.862 -59.9634 0 
-149.418 -68.3384 0 
-147.21 -49.3677 0 
-133.791 -49.3968 0 
-157.765 -96.4986 0 
-161.748 -37.3297 0 
-183.743 -82.8923 0 
-157.432 -53.4505 0 
-178.197 -83.3181 0 
-131.797 -24.9441 0 
-176.836 -78.8775 0 
-142.41 -59.7366 0 
-136.907 -44.332 0 
-167.636 -60.9405 0 
-107.312 -49.6734 0 
-127.801 -46.2663 0 
-136.121 -76.4224 0 
-136.915 -79.8032 0 
-157.174 -80.6006 0 
-104.809 -71.2175 0 
-135.384 -31.8438 0 
-154.801 -75.6204 0 
-144.724 -46.2566 0 
-168.771 -38.8716 0 
-128.814 -38.3818 0 
-152.833 -35.4981 0 
-136.802 -11.7758 0 
-154.08 -42.0664 0 
-148.884 -45.0517 0 
-107.885 -29.7551 0 
-155.84 -43.6714 0 
-148.857 -84.1722 0 
-127.53 -51.8294 0 
-134.99 -20.8876 0 
-103.752 -33.3244 0 
-178.593 -51.2192 0 
-156.989 -47.2728 0 
-113.352 -78.2668 0 
-185.284 -34.7188 0 
-173.682 -4.0886 0 
-165.788 -24.7133 0 
-203.684 -15.6483 0 
-127.885 -45.3579 0 
-132.623 -24.4479 0 
-167.876 -26.1311 0 
-151.332 -19.0122 0 
-144.416 -4.00715 0 
-133.847 -8.10018 0 
-132.491 -30.4874 0 
-170.309 -13.5679 0 
-139.735 -11.7519 0 
-132.601 -8.86754 0 
-122.376 -34.1851 0 
-154.55 -25.3254 0 
-143.84 -23.3683 0 
-136.056 7.73566 0 
-191.852 -24.8131 0 
-165.619 20.2671 0 
-115.091 -27.7218 0 
-122.465 -6.88985 0 
-159.984 -20.0005 0 
-139.794 -1.07865 0 
-156.136 -7.56727 0 
-138.173 -20.7414 0 
-141.409 -36.6773 0 
-180.253 -10.6169 0 
-161.234 -3.72879 0 
-144.91 -10.3634 0 
-123.644 6.35453 0 
-143.521 -14.5828 0 
-143.592 -5.39985 0 
-133.121 -13.4499 0 
-144.661 -35.9546 0 
-177.121 -11.3356 0 
-146.726 -26.6968 0 
-180.601 6.67444 0 
-153.181 -14.9439 0 
-142.68 -21.1339 0 
-143.395 -5.43989 0 
-150.533 15.4784 0 
-152.646 -12.553 0 
-126.748 26.848 0 
-137.818 -41.8749 0 
-131.629 16.6299 0 
-151.067 40.9963 0 
-122.733 -39.0425 0 
-173.697 -5.37559 0 
-127.616 14.2097 0 
-149.061 33.6592 0 
-140.428 13.2028 0 
-120.931 9.64295 0 
-156.902 15.2153 0 
-110.282 -12.8001 0 
-141.021 11.1626 0 
-134.754 14.0529 0 
-101.856 -0.942198 0 
-144.954 17.9307 0 
-91.4036 -21.7128 0 
-140.916 -17.1761 0 
-163.022 14.3879 0 
-108.012 16.2518 0 
-97.114 27.3519 0 
-137.667 -8.36697 0 
-132.537 11.539 0 
-92.2713 -9.10896 0 
-97.5186 27.8694 0 
-88.7275 1.27333 0 
-127.709 12.8627 0 
-113.198 31.6224 0 
-183.017 -129.407 0 
-134.158 -2.23665 0 
-119.844 5.97393 0 
-175.362 -147.589 0 
-163.407 -169.654 0 
-109.833 11.1981 0 
-104.872 47.4238 0 
-124.877 46.3412 0 
-107.049 27.1236 0 
-109.061 -172.519 0 
-175.131 -154.728 0 
-179.863 -141.964 0 
-179.016 -141.006 0 
-185.567 -133.93 0 
-190.38 -147.542 0 
-109.752 -157.4 0 
-118.29 60.5913 0 
-104.144 52.6757 0 
-116.343 -170.348 0 
-167.724 -179.572 0 
-110.638 43.7625 0 
-92.722 45.5418 0 
-113.145 -159.082 0 
-106.666 55.3939 0 
-111.023 40.245 0 
-165.367 -105.558 0 
-169.676 -133.873 0 
-169.658 -116.786 0 
-180.198 -117.097 0 
-168.831 -121.98 0 
-189.536 -108.953 0 
-206.576 -174.235 0 
-195.594 -170.742 0 
-192.251 -115.719 0 
-193.264 -140.798 0 
-171.895 -124.581 0 
-139.739 -161.997 0 
-130.37 -146.288 0 
-130.065 -146.875 0 
-161.304 -166.913 0 
-118.688 71.2489 0 
-144.507 -174.348 0 
-141.618 -138.661 0 
-147.947 -167.368 0 
-139.319 -140.047 0 
-121.043 -147.125 0 
-165.588 -131.9 0 
-197.68 -175.109 0 
-133.116 -183.267 0 
-108.622 69.5233 0 
-148.957 -180.237 0 
-121.786 -140.325 0 
-114.274 -166.076 0 
-152.529 -152.377 0 
-152.223 -120.968 0 
-181.781 -84.8261 0 
-178.766 -119.636 0 
-166.731 -71.0954 0 
-188.567 -86.0843 0 
-189.994 -107.145 0 
-189.116 -88.9524 0 
-190.729 -109.92 0 
-169.489 -105.572 0 
-185.754 -85.1515 0 
-169.87 -116.784 0 
-193.324 -91.9165 0 
-143.082 -162.956 0 
-161.671 -148.428 0 
-145.224 -159.655 0 
-124.563 -139.987 0 
-135.995 -137.459 0 
-102.87 74.8304 0 
-174.91 -132.145 0 
-133.921 -157.491 0 
-132.001 -111.039 0 
-128.912 -141.108 0 
-145.294 -141.296 0 
-135.255 -141.021 0 
-132.207 -142.168 0 
-159.096 -89.7896 0 
-152.402 -117.176 0 
-130.266 -157.858 0 
-154.564 -157.152 0 
-161.295 -117.605 0 
-149.08 -145.531 0 
-148.501 -136.566 0 
-152.22 -143.922 0 
-98.3083 76.9645 0 
-138.678 -147.853 0 
-135.559 -146.78 0 
-142.822 -130.035 0 
-123.077 -135.527 0 
-151.835 -165.447 0 
-160.851 -113.943 0 
-187.076 -101.02 0 
-167.061 -80.8252 0 
-157.7 -73.6275 0 
-186.272 -92.6482 0 
-165.619 -85.105 0 
-151.845 -122.456 0 
-87.9093 81.5344 0 
-142.58 -124.506 0 
-125.138 -117.704 0 
-157.265 -120.947 0 
-138.335 -81.1773 0 
-148.945 -140.468 0 
-112.177 -123.214 0 
-139.316 -145.162 0 
-132.384 -112.087 0 
-143.892 -134.347 0 
-90.6987 84.1151 0 
-195.472 -134.546 0 
-130.77 99.5626 0 
-119.969 -125.739 0 
-154.166 -124.895 0 
-151.22 -121.238 0 
-121.469 -109.394 0 
-156.882 -95.6469 0 
-199.423 -104.582 0 
-153.552 -82.0171 0 
-164.083 -98.0764 0 
-139.729 -92.4074 0 
-179.995 -124.406 0 
-161.896 -89.6118 0 
-138.235 -94.9884 0 
-153.713 -87.7578 0 
-180.476 -96.1256 0 
-186.503 -131.153 0 
-185.414 -103.783 0 
-167.557 -94.2482 0 
-154.311 -99.8796 0 
-166.152 -122.613 0 
-162.052 -105.384 0 
-171.262 -73.5608 0 
-112.196 -84.8454 0 
-169.238 -90.0368 0 
-175.372 -96.2731 0 
-165.022 -129.02 0 
-153.19 -87.7068 0 
-118.414 -84.9057 0 
-127.369 -118.257 0 
-126.053 -126.522 0 
-169.497 -119.568 0 
-150.05 -117.983 0 
-117.144 75.3165 0 
-147.895 -129.357 0 
-117.893 -104.782 0 
-161.497 -145.626 0 
-117.326 -77.2957 0 
-164.291 -148.679 0 
-129.802 -130.5 0 
-160.875 -81.1636 0 
-148.966 -135.033 0 
-162.473 -93.1546 0 
-142.605 -111.851 0 
-156.045 -108.642 0 
-113.329 -125.546 0 
-191.007 -103.111 0 
-120.749 -105.278 0 
-107.552 -112.027 0 
-174.57 -132.125 0 
-161.516 -120.36 0 
-147.371 -87.5209 0 
-170.387 -104.918 0 
-166.018 -122.25 0 
-192.652 -101.976 0 
-170.789 -79.6171 0 
-170.772 -83.8309 0 
-164.684 -70.5501 0 
-163.637 -76.0433 0 
-182.347 -109.3 0 
-169.036 -91.4844 0 
-168.465 -75.7663 0 
-150.044 -86.1504 0 
-144.987 -97.0566 0 
-160.737 -95.9555 0 
-175.182 -109.272 0 
-163.797 -105.502 0 
-165.298 -63.8913 0 
-145.091 -119.82 0 
-161.706 -100.55 0 
-131.657 -102.053 0 
-170.111 -122.379 0 
-151.929 -127.688 0 
-96.1349 -107.532 0 
-102.392 -117.96 0 
-154.742 -97.3765 0 
-150.203 -88.2029 0 
-149.99 -85.4704 0 
-132.148 -90.6464 0 
-154.825 -79.7754 0 
-144.911 -108.788 0 
-165.189 -112.958 0 
-110.438 -90.7553 0 
-136.85 -96.2238 0 
-149.299 -115.746 0 
-110.002 -91.5498 0 
-121.971 -108.38 0 
-103.942 -91.6988 0 
-104.639 -120.216 0 
-155.914 -95.5676 0 
-142.742 -81.9457 0 
-144.202 -94.1751 0 
-133.123 -100.368 0 
-127.508 -51.0148 0 
-165.736 -140.794 0 
-149.187 -120.133 0 
-147.864 -103.151 0 
-131.967 -69.782 0 
-167.621 -83.4944 0 
-177.289 -125.189 0 
-117.022 -87.5979 0 
-152.202 -78.5403 0 
-110.524 -71.55 0 
-126.113 -99.2219 0 
-140.603 -110.937 0 
-98.4362 -71.835 0 
-169.029 -111.394 0 
-152.853 -109.058 0 
-136.104 -107.51 0 
-131.673 -127.902 0 
-145.847 -112.229 0 
-149.642 -109.685 0 
-88.3926 107.879 0 
-94.8704 -99.9616 0 
-101.465 -96.7761 0 
-148.903 -86.3135 0 
-177.359 -87.3614 0 
-175.72 -63.6081 0 
-185.953 -66.4149 0 
-146.417 -76.4527 0 
-176.157 -74.3177 0 
-182.727 -55.9758 0 
-190.085 -61.5559 0 
-181.988 -67.5208 0 
-155.137 -106.076 0 
-118.173 -111.978 0 
-156.304 -114.585 0 
-120.209 -70.8943 0 
-137.734 -81.6362 0 
-143.295 -71.4517 0 
-116.01 -42.6426 0 
-119.302 -85.1862 0 
-148.417 -119.736 0 
-120.604 -63.724 0 
-95.8754 -51.2058 0 
-158.612 -92.7262 0 
-125.832 -73.5458 0 
-136.302 -103.676 0 
-100.079 -72.7457 0 
-141.742 -79.6744 0 
-133.511 -82.4782 0 
-89.1308 -66.1087 0 
-144.575 -77.2205 0 
-124.979 -93.9787 0 
-131.666 -93.5581 0 
-138.777 -112.334 0 
-174.081 -62.0901 0 
-149.56 -94.6508 0 
-141.613 -80.06 0 
-139.828 -92.3934 0 
-157.825 -95.3092 0 
-146.811 -87.4577 0 
-134.789 -64.9703 0 
-135.893 -85.8091 0 
-136.636 -77.928 0 
-137.013 -109.216 0 
-165.69 -63.9566 0 
-147.279 -61.7085 0 
-112.55 -78.9579 0 
-126.092 -68.2996 0 
-137.102 -79.0638 0 
-140.202 -94.144 0 
-140.233 -64.9942 0 
-137.22 -112.763 0 
-111.191 -72.0222 0 
-123.716 -99.5855 0 
-135.927 -71.3127 0 
-170.051 -68.701 0 
-135.125 -78.1074 0 
-168.699 -76.191 0 
-135.169 -96.1415 0 
-110.633 -90.0107 0 
-130.63 -74.1759 0 
-181.552 -40.0146 0 
-185.845 -55.9999 0 
-171.55 -42.971 0 
-136.718 -69.4902 0 
-121.01 -58.4522 0 
-107.873 -84.0025 0 
-144.138 -53.5377 0 
-157.099 -49.345 0 
-170.483 -59.9145 0 
-128.147 -64.8803 0 
-115.016 -72.8336 0 
-133.133 -69.0347 0 
-108.406 -103.223 0 
-144.018 -35.0614 0 
-120.089 -93.621 0 
-113.057 -76.2069 0 
-109.274 -100.766 0 
-164.297 -43.713 0 
-131.082 -71.7513 0 
-209.393 -110.626 0 
-103.141 -78.3104 0 
-151.61 -93.2636 0 
-131.373 -97.9786 0 
-118.409 -55.5672 0 
-125.904 -45.4798 0 
-116.172 -74.8511 0 
-121.361 -73.7899 0 
-99.245 -79.379 0 
-142.206 -87.8324 0 
-124.668 -80.2995 0 
-128.162 -93.7781 0 
-114.412 -85.5429 0 
-156.434 -82.0007 0 
-141.447 -54.9982 0 
-125.591 -82.0555 0 
-105.252 -90.6122 0 
-131.634 -83.7098 0 
-117.297 -86.6608 0 
-113.35 -74.3655 0 
-126.316 -73.8369 0 
-116.994 -103.439 0 
-159.193 -46.6579 0 
-126.638 -87.3138 0 
-121.538 -64.088 0 
-136.955 -69.0897 0 
-125.877 -38.6714 0 
-106.528 -62.7193 0 
-133.181 -68.5835 0 
-111.631 -90.3995 0 
-161.873 -72.6191 0 
-172.54 -56.7882 0 
-131.921 -92.0663 0 
-164.285 -40.9571 0 
-138.055 -73.9471 0 
-152.256 -39.3202 0 
-136.597 -27.3045 0 
-109.54 -92.9854 0 
-106.452 -79.0914 0 
-126.252 -86.9739 0 
-111.652 -82.1833 0 
-135.765 -75.1033 0 
-102.716 -53.6892 0 
-152.385 -90.4308 0 
-148.007 -84.8944 0 
-131.439 -71.0566 0 
-141.755 -81.0608 0 
-121.901 -76.4219 0 
-112.544 -96.6162 0 
-136.71 -84.56 0 
-163.27 -3.79403 0 
-163.023 7.28451 0 
-173.189 -29.0767 0 
-122.303 -53.2499 0 
-93.89 -71.6196 0 
-106.171 -70.1165 0 
-102.923 -61.4705 0 
-137.273 -78.867 0 
-108.04 -70.4686 0 
-101.96 -39.8528 0 
-100.57 -47.3119 0 
-161.218 -62.6752 0 
-120.58 -57.0407 0 
-118.43 -47.6123 0 
-141.117 -42.7859 0 
-123.848 -40.6605 0 
-163.234 -4.39962 0 
-137.081 -57.635 0 
-132.758 -24.4603 0 
-135.481 -22.8857 0 
-134.675 -36.3297 0 
-129.11 -37.2508 0 
-136.775 -57.7514 0 
-153.255 -65.2101 0 
-130.838 -32.9075 0 
-117.244 -61.4879 0 
-139.73 -41.2506 0 
-135.431 -25.4973 0 
-148.252 -30.833 0 
-159.497 -77.9146 0 
-136.745 -8.98458 0 
-126.364 -37.7156 0 