<VTKFile type="UnstructuredGrid" version="0.1" byte_order="BigEndian">
  <UnstructuredGrid>
        <Piece NumberOfPoints="8000" NumberOfCells="0" Time= "0.195">      <Points>
        <DataArray name="Position" type="Float32"  NumberOfComponents= "3"  format="ascii">

96.314 18.8496 0 
96.5286 23.6703 0 
96.1391 35.0112 0 
95.5208 35.6088 0 
98.0103 8.18305 0 
98.5484 8.6297 0 
97.5795 7.78873 0 
98.5541 8.39872 0 
98.2378 8.22744 0 
97.6611 8.48083 0 
98.7114 8.79051 0 
98.4037 10.7433 0 
98.9147 11.5093 0 
97.0672 19.716 0 
97.4923 18.5298 0 
98.3889 19.3818 0 
98.6431 21.9574 0 
99.3531 20.458 0 
97.1238 24.125 0 
98.9877 24.4385 0 
98.6442 23.1795 0 
98.6048 26.0188 0 
99.2369 25.9452 0 
99.0873 27.824 0 
98.4794 25.8546 0 
98.5673 25.9241 0 
99.2675 27.2236 0 
98.344 28.2507 0 
98.0621 29.1247 0 
98.0625 28.2147 0 
98.9357 30.927 0 
99.2706 30.523 0 
98.9658 30.9996 0 
96.9667 31.6534 0 
99.0443 33.0532 0 
99.457 34.3235 0 
98.3187 34.0636 0 
98.8043 36.5307 0 
101.678 0.0560942 0 
100.812 37.9689 0 
101.211 39.7529 0 
100.901 0.716608 0 
101.709 2.23819 0 
101.092 2.79137 0 
101.738 4.36172 0 
100.656 4.02516 0 
100.163 5.95933 0 
100.945 5.09558 0 
100.842 6.24896 0 
100.441 5.38942 0 
100.075 5.81565 0 
100.234 6.15863 0 
101.201 5.66069 0 
101.692 5.91348 0 
99.3773 4.7647 0 
100.597 4.89164 0 
101.526 6.71937 0 
99.6576 8.30874 0 
100.392 7.0012 0 
99.5572 7.61248 0 
99.9259 8.2707 0 
101.536 7.44824 0 
100.925 8.54523 0 
101.766 7.96848 0 
100.167 8.24974 0 
100.788 7.81646 0 
99.5978 7.61538 0 
99.7488 8.38735 0 
100.236 8.9614 0 
99.4128 8.49051 0 
99.6572 8.0297 0 
100.301 7.6082 0 
100.247 9.08018 0 
99.4833 8.09898 0 
100.416 9.53226 0 
101.41 9.15674 0 
100.215 9.55613 0 
100.116 10.6046 0 
99.3354 9.94064 0 
101.741 11.0927 0 
99.3476 10.0017 0 
99.7059 12.0951 0 
101.501 10.3337 0 
101.392 11.7548 0 
99.923 10.8983 0 
100.659 10.1994 0 
101.649 11.2697 0 
101.186 11.8016 0 
99.5126 10.519 0 
101.835 10.6253 0 
100.69 12.1697 0 
101.569 11.1312 0 
101.17 13.3129 0 
100.866 14.2571 0 
101.425 12.6823 0 
100.195 12.5748 0 
101.146 16.0523 0 
101.482 15.649 0 
100.47 16.5335 0 
100.346 15.3673 0 
101.493 17.1077 0 
101.317 17.3598 0 
101.128 18.4937 0 
101.282 19.2205 0 
101.243 19.4516 0 
100.054 17.6619 0 
100.848 18.7959 0 
101.357 18.1135 0 
99.8488 20.6618 0 
99.8847 22.5857 0 
101.866 20.5363 0 
101.003 21.5963 0 
100.582 21.0331 0 
100.996 20.319 0 
101.995 24.8547 0 
101.218 23.8576 0 
100.864 22.9023 0 
101.61 23.2338 0 
101.828 26.0113 0 
101.684 25.9006 0 
100.63 25.6706 0 
101.864 25.3387 0 
100.063 25.3323 0 
101 26.3059 0 
101.767 29.1624 0 
100.771 29.0369 0 
101.676 28.0984 0 
101.496 30.6822 0 
99.7824 31.7662 0 
100.687 34.1709 0 
100.452 34.2481 0 
101.281 34.8182 0 
100.048 37.2127 0 
100.451 39.0046 0 
104.149 0.0933853 0 
104.026 0.36537 0 
102.951 38.6602 0 
103.887 0.384442 0 
101.855 0.3815 0 
102.778 1.12482 0 
103.156 0.699076 0 
102.172 0.819148 0 
103.776 0.296089 0 
102.21 0.166288 0 
102.87 39.9469 0 
103.179 39.7508 0 
102.087 1.04282 0 
103.517 1.01756 0 
104.059 3.96728 0 
101.894 2.73338 0 
103.973 1.77601 0 
103.48 3.55357 0 
101.865 2.14617 0 
103.685 4.41406 0 
102.055 3.71057 0 
103.786 2.71302 0 
103.681 2.19598 0 
103.191 4.42799 0 
102.285 3.31339 0 
103.474 3.01096 0 
104.273 3.72683 0 
102.924 3.7872 0 
103.642 4.36745 0 
103.606 6.39838 0 
103.925 6.24829 0 
103.445 6.45122 0 
103.472 5.9014 0 
103.902 5.26138 0 
103.028 6.31703 0 
103.874 6.49576 0 
102.713 6.13084 0 
104.239 7.02827 0 
104.383 6.74001 0 
103.867 6.45001 0 
103.919 4.64358 0 
104.121 5.18332 0 
103.881 5.66517 0 
102.062 6.45074 0 
102.53 6.19989 0 
103.768 7.01896 0 
102.442 6.5757 0 
103.139 6.8972 0 
104.121 5.9567 0 
104.263 4.35664 0 
102.985 4.7447 0 
103.27 4.99946 0 
102.915 6.8686 0 
103.498 4.38923 0 
102.323 5.1833 0 
103.75 5.71696 0 
104.423 7.76655 0 
104.17 9.40356 0 
102.193 7.4109 0 
104.215 8.98991 0 
103.524 9.46332 0 
102.008 8.81812 0 
102.197 7.25131 0 
103.006 9.01506 0 
104.141 8.14105 0 
102.125 7.25914 0 
103.639 7.79944 0 
104.386 7.83761 0 
104.151 7.73077 0 
104.163 8.07385 0 
103.206 9.46161 0 
104.232 7.30336 0 
104.385 7.35469 0 
101.916 7.1806 0 
102.968 7.97086 0 
104.091 8.07067 0 
102.32 8.26771 0 
103.018 9.32199 0 
102.448 8.28898 0 
104.043 9.33256 0 
102.758 8.0067 0 
103.68 9.11813 0 
102.534 7.15232 0 
104.245 11.9812 0 
103.892 11.7333 0 
102.914 11.4052 0 
102.951 10.2337 0 
103.525 10.3127 0 
102.474 11.9766 0 
103.972 9.68731 0 
102.546 10.2934 0 
104.099 10.4777 0 
102.021 10.0073 0 
104.288 10.4394 0 
103.532 12.2719 0 
103.016 9.719 0 
102.429 11.7862 0 
104.394 11.4052 0 
103.821 11.4752 0 
103.616 11.8333 0 
103.657 10.0167 0 
103.709 10.0243 0 
103.398 10.1298 0 
102.894 10.2494 0 
103.879 12.1767 0 
102.427 10.0314 0 
104.346 10.7694 0 
102.75 11.5634 0 
103.997 11.3067 0 
103.773 12.1157 0 
103.89 11.4237 0 
102.202 12.0994 0 
102.369 10.5114 0 
103.893 10.2091 0 
102.677 10.5542 0 
104.086 10.0537 0 
104.236 11.7577 0 
103.593 10.2785 0 
104.047 10.8499 0 
102.448 11.7035 0 
103.413 11.4418 0 
103.413 13.2437 0 
104.556 13.2054 0 
103.055 12.8042 0 
103.343 14.3688 0 
103.897 12.6204 0 
103.403 13.8739 0 
103.753 12.5774 0 
103.236 13.1739 0 
102.912 14.5493 0 
102.123 14.9583 0 
103.753 13.9135 0 
103.386 13.2701 0 
104.459 12.9089 0 
101.996 13.078 0 
103.059 14.1957 0 
103.699 12.7039 0 
102.067 13.1251 0 
104.162 14.693 0 
103.896 12.6689 0 
104.441 13.1866 0 
102.366 14.7631 0 
102.665 12.8671 0 
104.265 13.0984 0 
103.885 12.6934 0 
101.953 12.5842 0 
104.348 12.9788 0 
103.9 12.7537 0 
102.009 12.3292 0 
103.388 12.2523 0 
101.982 13.6711 0 
103.632 13.613 0 
103.431 15.2533 0 
103.743 15.7853 0 
103.067 16.5447 0 
104.245 16.0916 0 
104.177 15.6388 0 
103.55 16.9952 0 
103.88 15.0627 0 
103.798 15.5721 0 
102.181 16.6315 0 
104.031 15.625 0 
104.004 15.313 0 
103.913 15.4626 0 
102.729 17.5067 0 
103.839 15.1076 0 
103.493 15.8149 0 
104.384 16.1228 0 
102.349 15.3812 0 
104.312 16.3551 0 
104.053 16.1227 0 
104.331 16.0615 0 
103.781 17.2796 0 
104.121 16.566 0 
102.539 17.3033 0 
102.905 16.8914 0 
104.307 15.3767 0 
102.549 16.9044 0 
103.392 15.4616 0 
103.894 16.6416 0 
101.879 16.6043 0 
102.208 15.8547 0 
103.1 15.7167 0 
104.038 18.6728 0 
103.677 19.9456 0 
104.297 17.7128 0 
102.254 19.1173 0 
102.035 17.5685 0 
101.875 19.7686 0 
103.543 18.7031 0 
102.081 18.5114 0 
103.932 18.0809 0 
102.283 20.2111 0 
102.213 18.0825 0 
103.423 17.661 0 
104.218 19.3942 0 
103.355 17.6612 0 
102.259 19.7205 0 
103.918 18.5613 0 
103.58 21.3255 0 
102.709 21.8497 0 
103.632 22.3787 0 
103.357 24.9839 0 
103.416 23.62 0 
103.492 25.0106 0 
103.887 24.7627 0 
102.146 25.0942 0 
102.746 24.7949 0 
102.806 23.2594 0 
104.332 26.1463 0 
103.912 26.0121 0 
103.544 25.4913 0 
103.72 26.6835 0 
103.975 26.6278 0 
104.347 26.1514 0 
103.132 26.689 0 
103.953 27.7486 0 
102.805 25.2116 0 
104.06 27.5309 0 
104.426 26.0372 0 
102.755 26.1203 0 
104.055 28.4639 0 
102.385 30.0149 0 
103.51 30.1255 0 
104.262 29.2938 0 
103.33 28.1603 0 
103.978 29.4331 0 
103.607 27.9483 0 
103.419 29.4073 0 
103.552 30.2417 0 
102.296 28.1274 0 
103.486 28.621 0 
103.637 32.5378 0 
102.109 31.285 0 
103.375 31.9512 0 
102.928 30.3536 0 
102.66 32.4392 0 
102.072 32.2642 0 
104.343 31.1847 0 
102.983 30.4987 0 
103.266 32.9906 0 
103.121 35.3606 0 
102.791 33.8315 0 
103.786 34.2266 0 
103.738 34.0793 0 
102.616 34.7074 0 
104.147 34.5803 0 
102.087 35.4112 0 
104.17 33.3413 0 
102.615 35.9783 0 
104.56 37.2362 0 
102.377 37.8671 0 
102.316 39.1749 0 
102.688 39.083 0 
104.514 37.8144 0 
106.66 0.568866 0 
106.523 39.5617 0 
106.078 0.630995 0 
105.667 0.40039 0 
104.632 0.491695 0 
105.825 0.407181 0 
105.639 37.6858 0 
104.737 39.7016 0 
105.314 1.07945 0 
104.798 1.63617 0 
105.449 1.82696 0 
104.8 4.57267 0 
104.81 4.46068 0 
105.064 3.12235 0 
104.938 4.13957 0 
105.528 4.21897 0 
106.462 3.85746 0 
105.777 3.8245 0 
105.844 3.06658 0 
105.475 3.59049 0 
106.648 3.69249 0 
104.853 3.81432 0 
106.647 2.75244 0 
105.887 2.57394 0 
105.336 2.81936 0 
105.656 2.35131 0 
106.266 4.07875 0 
105.807 4.54588 0 
106.749 3.63197 0 
105.851 3.4448 0 
106.289 3.76567 0 
105.948 6.09495 0 
106.437 5.51912 0 
105.708 6.21469 0 
106.457 5.57098 0 
105.824 4.77261 0 
105.141 6.14277 0 
104.701 5.14951 0 
105.419 5.03203 0 
105.48 5.95073 0 
105.97 6.32707 0 
106.273 5.17745 0 
106.361 7.11281 0 
105.46 4.68349 0 
104.626 5.55125 0 
106.359 5.83005 0 
106.952 5.27147 0 
106.983 7.10738 0 
104.741 6.43381 0 
105.219 4.90044 0 
105.836 5.21735 0 
106.634 4.61582 0 
104.941 5.65711 0 
105.492 5.98154 0 
105.841 6.28741 0 
106.502 5.1673 0 
105.721 5.16798 0 
104.847 5.34848 0 
104.887 5.48826 0 
104.362 6.86257 0 
106.01 4.83743 0 
106.517 5.43112 0 
105.828 6.30347 0 
105.41 6.40279 0 
106.494 6.49594 0 
106.349 7.1265 0 
105.13 6.29293 0 
105.864 5.26221 0 
105.881 5.42017 0 
105.663 4.46497 0 
104.584 6.5223 0 
106.405 5.82365 0 
105.655 6.12858 0 
104.5 5.74201 0 
105.112 6.2124 0 
104.606 6.66435 0 
106.084 6.10599 0 
104.831 5.20128 0 
105.072 5.25373 0 
106.905 4.93018 0 
105.989 5.88969 0 
105.691 6.23849 0 
106.795 7.14192 0 
106.426 7.18523 0 
104.746 6.7123 0 
106.072 5.40996 0 
106.146 5.57364 0 
105.705 4.78674 0 
104.526 4.50002 0 
106.854 6.03053 0 
106.421 4.53342 0 
104.816 5.38784 0 
105.211 6.13634 0 
106.38 7.2813 0 
106.23 8.89351 0 
105.049 7.69833 0 
105.855 8.94591 0 
105.925 7.35894 0 
106.721 7.23253 0 
105.9 9.56699 0 
105.086 6.96563 0 
104.855 8.98079 0 
105.487 7.50103 0 
104.79 8.91754 0 
105.445 7.65729 0 
106.625 9.05021 0 
105.724 7.78721 0 
105.923 7.22469 0 
104.677 9.11729 0 
106.443 8.17477 0 
105.896 7.73547 0 
106.786 9.49689 0 
106.196 7.20954 0 
104.506 7.79583 0 
104.597 7.83428 0 
105.433 7.20401 0 
105.249 7.48925 0 
106.528 7.31714 0 
106.645 9.5283 0 
105.832 9.54171 0 
106.545 7.26217 0 
104.757 7.34074 0 
105.766 7.79256 0 
106.573 8.60332 0 
105.503 8.14567 0 
106.265 9.44478 0 
105.658 8.67856 0 
105.839 8.28468 0 
[...]
      <PointData Vectors="vector">
        <DataArray type="Float32" Name="Velocity" NumberOfComponents="3" format="ascii">

-133.096 15.6176 0 
-180.958 -28.579 0 
-150.528 -12.3549 0 
-148.08 19.1024 0 
-136.006 53.5331 0 
-124.889 91.8895 0 
-123.66 119.529 0 
-152.819 -100.235 0 
-186.736 -115.878 0 
-151.343 -91.3264 0 
-183.903 -94.9703 0 
-169.381 -63.5909 0 
-152.184 -103.14 0 
-154.747 -101.462 0 
-192.136 -117.646 0 
-183.796 -104.145 0 
-185.738 -113.273 0 
-141.695 -121.806 0 
-151.343 -87.3285 0 
-171.448 -89.1622 0 
-132.976 -97.379 0 
-159.625 -82.8475 0 
-191.635 -79.4485 0 
-179.871 -93.2971 0 
-165.98 -62.5031 0 
-147.933 -51.2356 0 
-146.082 -85.6141 0 
-167.727 -51.4123 0 
-165.55 -39.0737 0 
-151.862 -58.1659 0 
-124.71 1.50044 0 
-133.57 23.5933 0 
-125.944 5.33538 0 
-159.941 -11.7124 0 
-169.11 -5.68788 0 
-128.083 35.7367 0 
-115.719 34.8143 0 
-116.245 41.3343 0 
-132.047 35.4309 0 
-178.569 4.9536 0 
-160.208 20.3415 0 
-137.276 69.4506 0 
-146.167 87.8327 0 
-170.064 56.3125 0 
-115.741 64.7688 0 
-136.842 108.66 0 
-108.267 88.8413 0 
-113.49 104.657 0 
-121.514 82.1474 0 
-111.433 87.8314 0 
-102.284 111.012 0 
-145.922 112.381 0 
-111.162 101.12 0 
-150.012 -142.606 0 
-133.505 -88.1083 0 
-136.356 -150.026 0 
-134.104 -97.9146 0 
-131.96 -146.173 0 
-125.872 -161.463 0 
-153.632 -102.995 0 
-140.152 -116.164 0 
-144.732 -123.09 0 
-158.039 -66.1445 0 
-132.441 -97.5847 0 
-151.257 -64.1665 0 
-156.977 -129.882 0 
-138.061 -61.4977 0 
-152.006 -106.318 0 
-172.662 -107.298 0 
-153.978 -100.729 0 
-153.623 -111.506 0 
-141.47 -94.7609 0 
-142.239 -98.1515 0 
-140.28 -111.497 0 
-132.795 -88.9383 0 
-146.62 -76.8742 0 
-161.845 -114.184 0 
-173.385 -102.214 0 
-155.826 -100.521 0 
-140.617 -104.431 0 
-156.76 -81.8929 0 
-155.665 -84.1943 0 
-145.148 -82.0087 0 
-146.108 -66.4485 0 
-113.983 -92.6456 0 
-137.235 -96.5306 0 
-149.948 -54.8889 0 
-155.909 -70.71 0 
-148.206 -75.8676 0 
-145.939 -107.315 0 
-119.915 -83.3335 0 
-160.61 -94.1519 0 
-154.668 -70.0559 0 
-158.85 -88.8796 0 
-140.451 -78.0423 0 
-122.182 -63.029 0 
-126.528 -82.1096 0 
-116.717 -68.7128 0 
-171.843 -67.5624 0 
-133.095 -63.5109 0 
-135.418 -46.7683 0 
-109.533 -95.6332 0 
-110.076 -55.9869 0 
-126.486 -54.7601 0 
-129.141 -57.3149 0 
-137.528 -52.2766 0 
-145.767 -49.8829 0 
-108.045 -86.4573 0 
-110.837 -51.5335 0 
-128.968 -33.0064 0 
-119.885 -56.414 0 
-104.785 -74.112 0 
-131.294 -37.1582 0 
-116.674 -65.7372 0 
-127.605 -22.58 0 
-109.661 -48.2896 0 
-119.404 -66.9759 0 
-120.996 16.8694 0 
-114.924 -22.3628 0 
-124.314 -27.7053 0 
-106.068 15.7959 0 
-153.413 -33.029 0 
-137.153 -58.7318 0 
-124.881 -22.0585 0 
-119.327 -15.8382 0 
-150.975 -37.8096 0 
-153.09 -23.5039 0 
-116.034 -31.9544 0 
-122.76 -1.04611 0 
-156.88 -9.26202 0 
-160.069 -26.7861 0 
-135.181 -34.3853 0 
-159.173 22.0659 0 
-129.309 -12.6174 0 
-125.04 -9.07854 0 
-137.509 -33.0536 0 
-130.658 6.29166 0 
-147.227 25.088 0 
-114.572 -6.54754 0 
-141.137 14.866 0 
-153.441 -5.05688 0 
-130.92 9.59112 0 
-152.577 -4.82968 0 
-174.28 -14.0181 0 
-122.022 -2.53861 0 
-116.308 -30.6456 0 
-143.139 -10.5289 0 
-121.896 -32.1004 0 
-96.0699 4.51557 0 
-110.857 4.14335 0 
-126.535 39.8445 0 
-94.1996 15.2611 0 
-138.273 47.8613 0 
-100.555 19.1316 0 
-97.6769 36.1892 0 
-148.794 61.3285 0 
-139.126 24.2365 0 
-134.386 58.9553 0 
-118.203 63.6616 0 
-101.027 25.6664 0 
-137.337 8.63886 0 
-116.168 17.9219 0 
-139.382 12.2427 0 
-113.929 73.3977 0 
-108.558 57.3577 0 
-91.9854 53.2975 0 
-98.6433 66.9784 0 
-106.508 50.7776 0 
-99.6554 65.4211 0 
-141.586 84.5731 0 
-88.4602 54.8606 0 
-132.54 43.4155 0 
-107.462 85.0908 0 
-118.515 92.0039 0 
-107.095 91.2481 0 
-87.0974 109.783 0 
-152.678 -151.228 0 
-98.8108 125.399 0 
-114.731 -158.616 0 
-151.902 -149.655 0 
-113.364 -151.898 0 
-109.427 -121.419 0 
-117.554 -131.913 0 
-99.8629 -149.872 0 
-114.215 -121.567 0 
-132.794 -112.944 0 
-128.571 -116.956 0 
-109.725 -143.271 0 
-110.334 -127.412 0 
-103.482 -145.953 0 
-129.496 -142.852 0 
-118.874 -135.029 0 
-103.02 -82.103 0 
-142.472 -129.335 0 
-122.347 -110.591 0 
-103.161 -84.9561 0 
-124.252 -105.713 0 
-124.97 -135.386 0 
-77.9565 -110.153 0 
-117.515 -105.674 0 
-117.301 -144.104 0 
-106.139 -80.2846 0 
-143.376 -100.738 0 
-113.839 -105.863 0 
-135.138 -132.406 0 
-157.891 -101.131 0 
-127.835 -79.715 0 
-110.622 -124.689 0 
-142.774 -124.925 0 
-113.142 -119.283 0 
-135.189 -115.776 0 
-147.406 -79.1996 0 
-142.248 -108.391 0 
-105.437 -79.0603 0 
-155.094 -76.6554 0 
-157.718 -91.4874 0 
-143.493 -115.438 0 
-122.034 -93.6498 0 
-107.132 -95.0713 0 
-123.045 -80.3611 0 
-140.709 -80.9499 0 
-127.855 -113.641 0 
-131.49 -125.02 0 
-128.763 -113.461 0 
-136.492 -74.6185 0 
-126.586 -58.0041 0 
-86.3689 -81.7019 0 
-123.763 -88.813 0 
-148.762 -83.1956 0 
-125.719 -81.0932 0 
-138.456 -118.552 0 
-104.981 -109.72 0 
-98.3827 -76.8621 0 
-124.675 -87.7526 0 
-140.682 -117.191 0 
-145.51 -127.054 0 
-146.501 -99.4768 0 
-122.336 -69.8886 0 
-138.365 -75.8273 0 
-140.696 -67.2852 0 
-78.5133 -54.6787 0 
-119.958 -73.193 0 
-132.963 -100.518 0 
-153.828 -83.0618 0 
-153.809 -97.6707 0 
-103.831 -99.5573 0 
-130.908 -80.964 0 
-102.774 -48.3317 0 
-115.824 -65.9343 0 
-153.664 -87.0007 0 
-139.789 -74.8348 0 
-135.841 -82.2358 0 
-114.095 -69.132 0 
-148.868 -96.6588 0 
-104.544 -60.0065 0 
-105.635 -92.6623 0 
-154.164 -39.3124 0 
-114.443 -48.3718 0 
-106.36 -77.2904 0 
-138.214 -95.8358 0 
-106.112 -50.6745 0 
-109.953 -65.0356 0 
-125.7 -42.3633 0 
-98.0396 -43.4835 0 
-160.943 -98.675 0 
-131.073 -62.8027 0 
-160.708 -96.359 0 
-141.403 -64.5835 0 
-121.681 -42.8223 0 
-121.326 -108.3 0 
-112.479 -63.538 0 
-101.739 -38.6369 0 
-106.174 -61.7441 0 
-161.58 -49.7667 0 
-133.54 -46.7411 0 
-144.449 -74.5862 0 
-140.873 -65.1842 0 
-97.7516 -78.2196 0 
-133.643 -71.044 0 
-118.64 -72.691 0 
-87.1795 -75.9988 0 
-134.506 -40.4975 0 
-122.701 -71.1824 0 
-95.7136 -60.6726 0 
-125.65 -34.8308 0 
-114.597 -55.4068 0 
-128.46 -58.701 0 
-136.656 -80.5217 0 
-117.28 -76.5669 0 
-117.591 -57.0317 0 
-129.817 -83.7861 0 
-117.609 -34.9291 0 
-105.183 -71.8593 0 
-132.099 -55.8589 0 
-132.928 -46.2092 0 
-120.879 -72.0242 0 
-113.63 -54.2887 0 
-117.499 -39.977 0 
-127.125 -63.8969 0 
-129.977 -37.9265 0 
-134.482 -87.0163 0 
-124.744 -72.212 0 
-104.315 -63.3042 0 
-144.006 -39.1636 0 
-109.224 -66.8969 0 
-139.162 -79.2814 0 
-97.6048 -61.7585 0 
-112.823 -31.2871 0 
-117.697 -43.5537 0 
-111.824 -46.8118 0 
-83.9339 -42.9721 0 
-125.661 -30.4817 0 
-107.228 -34.7554 0 
-158.623 -25.0431 0 
-131.784 -37.8855 0 
-152.963 -61.7903 0 
-154.817 -64.6708 0 
-145.207 -30.5356 0 
-132.353 -56.6016 0 
-122.99 -2.54202 0 
-153.797 -68.1608 0 
-113.685 -27.8512 0 
-111.513 -31.4985 0 
-96.456 -75.0263 0 
-151.194 -29.7118 0 
-89.4608 -36.1823 0 
-149.304 -63.7169 0 
-110.643 -40.9733 0 
-147.076 -68.2096 0 
-127.136 -40.3948 0 
-146.209 -21.1868 0 
-124.953 -51.0971 0 
-153.955 -62.3978 0 
-142.5 -58.9917 0 
-113.031 -9.79715 0 
-97.0723 -31.3321 0 
-149.96 -65.8755 0 
-134.323 -33.2681 0 
-126.748 -6.62791 0 
-90.0264 -28.6683 0 
-108.857 -7.85241 0 
-111.461 -49.0395 0 
-85.4727 -33.7074 0 
-154.238 -16.9991 0 
-152.784 -69.9728 0 
-128.148 -58.769 0 
-171.596 -30.4423 0 
-138.279 -45.8643 0 
-123.794 -40.4244 0 
-115.03 -23.9577 0 
-108.796 -60.2976 0 
-136.136 11.1195 0 
-103.166 19.2464 0 
-93.5353 -26.5432 0 
-132.656 9.42731 0 
-118.801 -37.8261 0 
-134.495 23.9505 0 
-133.508 -28.3257 0 
-119.657 -43.2841 0 
-146.174 -20.6191 0 
-122.044 -25.5726 0 
-94.3607 -18.9976 0 
-142.541 -33.2771 0 
-108.983 -57.444 0 
-102.736 -48.3522 0 
-86.4031 -18.9145 0 
-118.543 -43.2253 0 
-127.049 -19.7842 0 
-120.639 -22.4535 0 
-102.565 2.68293 0 
-132.922 25.2043 0 
-107.759 -30.0066 0 
-127.741 -8.35681 0 
-96.9769 11.2412 0 
-126.313 -20.8499 0 
-123.431 -57.5054 0 
-104.996 11.7009 0 
-140.979 -14.6822 0 
-118.273 -50.8896 0 
-141.402 -7.16352 0 
-96.3655 -16.6034 0 
-104.037 -41.2444 0 
-119.959 -66.3206 0 
-130.892 -42.6462 0 
-123.528 11.8732 0 
-156.981 -24.6913 0 
-128.454 -15.1087 0 
-136.946 -7.10397 0 
-139.113 14.7479 0 
-97.7108 8.35101 0 
-115.43 5.62876 0 
-155.609 -20.3689 0 
-129.717 -18.1204 0 
-156.353 -70.9072 0 
-156.314 -38.0847 0 
-109.265 6.619 0 
-153.648 -19.088 0 
-113.629 -20.8812 0 
-120.717 -0.6349 0 
-134.328 12.1026 0 
-97.2964 -22.0051 0 
-130.18 21.4267 0 
-94.7017 29.4502 0 
-112.859 55.5137 0 
-87.5873 11.6924 0 
-159.054 23.1029 0 
-134.995 10.3357 0 
-146.165 30.7731 0 
-63.8537 24.9208 0 
-87.5516 11.0846 0 
-128.484 40.068 0 
-91.8886 -4.80787 0 
-109.057 38.9974 0 
-109.109 55.5736 0 
-104.408 60.2742 0 
-141.089 55.851 0 
-133.852 33.1733 0 
-129.102 44.0155 0 
-125.468 44.5507 0 
-87.3582 34.9073 0 
-109.085 54.1261 0 
-110.396 -2.4171 0 
-142.886 81.248 0 
-139.767 37.7074 0 
-116.09 50.7394 0 
-132.059 26.2523 0 
-128.512 86.7963 0 
-114.16 54.913 0 
-135.913 67.6791 0 
-127.235 79.8363 0 
-113.827 45.1913 0 
-88.1054 80.9812 0 
-134.811 62.4149 0 
-104.947 57.085 0 
-96.6833 56.7914 0 
-102.137 94.0791 0 
-118.984 43.1089 0 
-89.9541 92.399 0 
-78.3294 78.769 0 
-111.177 53.8968 0 
-72.2875 92.2922 0 
-105.741 86.281 0 
-121.302 129.613 0 
-130.709 138.659 0 
-116.73 122.146 0 
-80.4227 136.51 0 
-102.736 90.2617 0 
-98.662 126.038 0 
-71.6963 116.447 0 
-95.6372 -136.059 0 
-85.1127 -141.713 0 
-97.7182 -152.734 0 
-179.791 -67.6182 0 
-161.815 -97.7606 0 
-163.661 -96.5872 0 
-173.317 -103.862 0 
-170.782 -94.2426 0 
-173.037 -92.1093 0 
-172.785 -88.9953 0 
-165.39 -93.7755 0 
-179.679 -80.3689 0 
-88.5184 -131.009 0 
-81.8804 -114.197 0 
-75.3027 -130.459 0 
-137.127 -102.036 0 
-70.8368 -121.564 0 
-88.6295 -135.008 0 
-125.561 -132.136 0 
-178.255 -63.1724 0 
-131.999 -93.5871 0 
-113.588 -84.4141 0 
-165.849 -85.9352 0 
-169.435 -71.4081 0 
-168.676 -91.4723 0 
-175.301 -70.0292 0 
-176.12 -71.0784 0 
-126.487 -83.3139 0 
-119.592 -108.333 0 
-112.407 -153.127 0 
-92.9891 -118.853 0 
-116.323 -135.027 0 
-132.35 -152.635 0 
-82.1308 -86.0504 0 
-155.886 -157.855 0 
-106.955 -75.3705 0 
-94.2046 -151.153 0 
-115.794 -130.476 0 
-120.434 -129.365 0 
-106.708 -125.522 0 
-111.933 -113.711 0 
-115.551 -123.785 0 
-106.56 -130.622 0 
-126.381 -127.722 0 
-108.58 -105.404 0 
-118.692 -119.8 0 
-123.574 -76.219 0 
-104.851 -112.88 0 
-123.059 -132.44 0 
-115.161 -119.294 0 
-112.157 -99.4772 0 
-115.384 -101.637 0 
-72.2963 -80.4994 0 
-127.901 -117.847 0 
-123.72 -137.951 0 
-139.434 -154.327 0 
-109.619 -115.958 0 
-147.11 -128.918 0 
-150.761 -72.7487 0 
-178.638 -77.5379 0 
-149.393 -70.2634 0 
-82.0908 -83.9763 0 
-108.625 -120.816 0 
-129.275 -64.6841 0 
-102.093 -83.5208 0 
-97.9155 -117.249 0 
-119.325 -89.3935 0 
-99.7622 -130.199 0 
-115.285 -104.423 0 
-110.528 -88.357 0 
-109.248 -116.626 0 
-105.755 -88.4033 0 
-81.5486 -105.47 0 
-82.6739 -68.9296 0 
-134.227 -67.718 0 
-124.51 -76.8329 0 
-127.219 -127.477 0 
-121.795 -62.2138 0 
-99.712 -102.869 0 
-111.766 -103.094 0 
-105.134 -61.8409 0 
-116.634 -107.727 0 
-108.009 -104.485 0 
-99.7212 -87.9745 0 
-91.309 -71.5488 0 
-116.635 -94.6652 0 
-92.5765 -108.576 0 
-130.81 -90.4972 0 
-134.324 -88.5347 0 
-84.2922 -71.8018 0 
-103.679 -80.4209 0 
-129.927 -78.7449 0 
-88.4158 -95.2028 0 
-100.617 -62.346 0 
-117.309 -81.9217 0 
-96.7339 -119.237 0 
-104.042 -105.836 0 
-93.1452 -126.395 0 
-134.828 -84.5601 0 
-99.2917 -103.664 0 
-78.8453 -65.296 0 
-107.76 -95.9877 0 
-155.013 -82.2269 0 
-120.874 -78.1712 0 
-93.3675 -78.5482 0 
-111.555 -67.3268 0 
-115.547 -91.0386 0 
-133.359 -116.284 0 
-104.119 -76.4374 0 
-103.456 -107.384 0 
-83.1848 -121.958 0 
-87.39 -79.4714 0 
-82.2704 -70.9146 0 
-107.274 -68.7447 0 
-109.555 -57.3185 0 
-100.043 -95.2168 0 
-107.451 -90.2319 0 
-86.3653 -61.0655 0 
-118.149 -98.3282 0 
-98.4922 -110.194 0 
-110.811 -85.7235 0 
-100.402 -86.7981 0 
-107.533 -120.612 0 
-126.01 -65.525 0 
-108.884 -75.9351 0 
-121.918 -71.8403 0 
-118.28 -42.9793 0 
-134.085 -63.6485 0 
-76.968 -43.1772 0 
-97.9182 -82.2334 0 
-79.4647 -85.4987 0 
-78.1282 -80.234 0 
-81.2063 -60.2799 0 
-145.62 -62.3449 0 
-137.571 -82.9868 0 
-117.261 -74.8665 0 
-98.5646 -86.9873 0 
-127.679 -67.3659 0 
-101.114 -91.4451 0 
-117.84 -120.412 0 
-127.015 -83.874 0 
-122.785 -68.3557 0 
-89.9529 -92.7403 0 
-132.023 -76.47 0 
-106.95 -73.1127 0 
-128.12 -74.2149 0 
-91.1979 -53.1407 0 
-130.833 -84.9693 0 
-92.1779 -60.2742 0 
-116.132 -62.8393 0 
-105.911 -58.2465 0 
-133.958 -56.5763 0 
-93.8815 -96.8814 0 
-131.28 -65.0296 0 
-119.997 -111.788 0 
-99.5489 -87.6496 0 
-109.766 -93.0031 0 
-103.768 -71.5323 0 
-125.942 -69.4306 0 
-87.2765 -102.227 0 
-79.5093 -88.4161 0 
-96.1501 -52.3419 0 
-115.945 -59.2567 0 
-118.029 -103.931 0 
-99.7237 -62.6991 0 
-124.385 -61.5026 0 
-90.8624 -85.0921 0 
-149.744 -57.8676 0 
-114.201 -53.9528 0 
-133.684 -78.2384 0 
-68.9311 -77.4867 0 
-123.172 -43.1743 0 
-97.1946 -84.1131 0 
-90.9561 -99.3552 0 
-87.6472 -71.6907 0 
-91.6928 -62.6789 0 
-129.304 -70.8978 0 
-99.5792 -38.4419 0 
-85.6508 -79.4137 0 
-87.462 -100.791 0 
-117.046 -73.3679 0 
-137.523 -39.4552 0 
-113.025 -90.6835 0 
-123.242 -96.3698 0 
-99.3764 -75.6953 0 
-143.764 -54.4415 0 
-97.8591 -51.9733 0 
-113.121 -91.8468 0 
-94.4745 -65.2644 0 
-68.8467 -76.1562 0 
-69.1314 -76.7553 0 
-77.0548 -75.9934 0 
-131.801 -63.7606 0 
-77.4266 -70.5618 0 
-104.785 -63.9967 0 
-90.1425 -69.3718 0 
-130.218 -73.6693 0 
-143.524 -56.0191 0 
-100.196 -74.8386 0 
-139.175 -63.1343 0 
-124.58 -58.9991 0 
-126.462 -53.4772 0 
-82.9594 -64.8391 0 
-102.079 -56.1853 0 
-139.327 -29.0963 0 
-127.597 -96.1171 0 
-140.012 -81.1958 0 
-60.3638 -72.5521 0 
-92.737 -78.9306 0 
-85.4449 -66.245 0 
-127.868 -69.8157 0 
-100.527 -48.1245 0 
-66.1634 -70.0915 0 
-82.1283 -63.6561 0 
-72.078 -69.2096 0 
-77.0628 -64.423 0 
-111.187 -98.7884 0 
-147.963 -45.8268 0 
-134.092 -24.3465 0 
-95.6365 -57.3483 0 
-91.2717 -53.2463 0 
-93.8846 -54.0721 0 
-126.033 -91.1647 0 
-87.8123 -36.0815 0 
-142.229 -43.7366 0 
-106.14 -50.6001 0 
-107.306 -63.6652 0 
-99.6847 -87.5032 0 
-101.33 -44.0022 0 
-83.2337 -66.8378 0 
-126.113 -74.532 0 
-88.252 -80.3205 0 
-79.9692 -75.1061 0 
-77.093 -49.2799 0 
-92.3669 -38.0634 0 
-135.426 -72.0584 0 
-92.9361 -65.956 0 
-107.745 -58.1195 0 
-83.6266 -92.1522 0 
-123.349 -70.1867 0 
-105.486 -39.2282 0 
-108.381 -52.8389 0 
-72.8968 -80.3074 0 
-130.768 -74.9758 0 
-135.571 -48.1491 0 
-90.2638 -93.9122 0 
-130.255 -38.9922 0 
-102.316 -43.4659 0 
-155.192 -65.4407 0 
-97.9369 -59.6035 0 
-96.5693 -61.4694 0 
-108.028 -36.3366 0 
-85.5013 -53.8357 0 
-123.958 -47.6787 0 
-109.936 -45.256 0 
-115.827 -20.053 0 
-112.796 -56.9584 0 
-137.717 -28.3336 0 
-134.365 -59.8953 0 
-80.7521 -59.4337 0 
-125.993 -66.4982 0 
-119.794 -50.2568 0 
-86.1053 -58.8338 0 
-117.191 -56.4812 0 
-95.83 -40.9002 0 
-100.733 -45.2904 0 
-117.67 5.96426 0 
-103.071 -43.2282 0 
-129.254 -21.2062 0 
-111.486 -46.3303 0 
-97.0889 -65.1322 0 
-80.8676 -55.6764 0 
-92.2215 -51.1973 0 
-133.791 -46.8014 0 
-144.578 -41.7984 0 
-130.906 -22.0874 0 
-136.635 15.0983 0 
-128.215 -38.9814 0 
-126.971 -45.4457 0 
-117.849 -70.9719 0 
-91.7135 -58.5939 0 
-80.0312 -59.3836 0 
-76.4302 -34.6659 0 
-106.08 -33.2977 0 
-89.6492 -82.993 0 
-111.027 -60.993 0 
-86.4962 -62.6568 0 
-107.291 -35.7823 0 
-101.514 -35.4041 0 
-137.38 -75.0249 0 
-110.638 -42.0555 0 
-113.283 -38.2778 0 
-121.712 -18.1796 0 
-125.557 -23.7237 0 
-91.9085 -52.5608 0 
-104.971 -46.7704 0 
-138.996 -36.989 0 
-153.37 -33.9948 0 
-118.269 -32.2715 0 
-86.9197 29.9384 0 
-105.36 -7.42602 0 
-118.748 -1.65662 0 
-110.41 -11.7045 0 
-79.3121 -13.6331 0 
-136.72 -11.5049 0 
-114.487 -13.071 0 
-94.2884 -20.6956 0 
-83.2942 28.4219 0 
-110.61 -1.48239 0 
-106.828 -41.9976 0 
-102.526 28.5928 0 
-79.586 -6.51233 0 
-110.229 -2.42908 0 
-130.285 -11.4309 0 
-97.909 -3.94502 0 
-88.5131 -4.85197 0 
-113.016 -18.8045 0 
-106.199 -1.93493 0 
-96.2897 3.36455 0 
-114.222 -14.8097 0 
-130.436 3.71545 0 
-111.454 -24.021 0 
-118.201 -20.3346 0 
-96.4459 -34.0877 0 
-103.24 23.5694 0 
-125.923 -34.7803 0 
-115.172 -20.3699 0 
-134.524 -8.43873 0 
-106.454 15.4485 0 
-102.737 21.7147 0 
-108.593 22.0964 0 
-107.868 -54.9833 0 
-146.695 7.53571 0 
-97.3472 -36.1994 0 
-120.989 9.66758 0 
-123.457 -16.1859 0 
-106.2 28.8976 0 
-79.084 -9.72045 0 
-115.11 3.82192 0 
-100.938 -7.37455 0 
-118.276 -35.9237 0 
-106.667 -14.5752 0 
-117.316 22.0019 0 
-103.094 -17.5577 0 
-89.4888 11.191 0 
-126.455 -0.59807 0 
-134.331 -2.26229 0 
-131.116 -7.6714 0 
-93.1064 -45.8095 0 
-119.244 12.4933 0 
-80.6397 -10.692 0 
-88.8739 7.39895 0 
-157.376 -10.2964 0 
-106.189 14.8913 0 
-96.929 -0.590271 0 
-100.064 19.765 0 
-84.6645 2.7078 0 
-92.8063 24.8129 0 
-111.205 -9.70409 0 
-106.772 -18.1589 0 
-99.7546 21.8296 0 
-148.821 7.60614 0 
-97.9624 0.541157 0 
-121.339 3.39941 0 
-123.198 14.4652 0 
-114.827 24.0145 0 
-117.583 -23.6668 0 
-92.669 1.67649 0 
-116.913 -7.01816 0 
-157.23 12.4376 0 
-83.0435 -18.6662 0 
-78.3038 -4.01044 0 
-102.349 -49.0841 0 
-81.3828 10.3378 0 
-124.597 -24.3799 0 
-104.797 8.50488 0 
-111.175 8.32325 0 
-94.1611 -33.2974 0 
-108.436 29.066 0 
-98.5755 19.5057 0 
-101.745 5.26647 0 
-70.2004 -9.58379 0 
-115.674 -13.4444 0 
-105.397 -24.9567 0 
-100.955 18.6761 0 
-143.857 -17.074 0 
-107.41 -11.3365 0 
-127.524 -51.0729 0 
-84.3475 -4.61747 0 
-80.0558 -9.34427 0 
-100.376 12.7368 0 
-138.57 3.08475 0 
-95.1315 27.2206 0 
-75.5003 -9.84643 0 
-91.269 -12.4837 0 
-87.4487 -3.64014 0 
-142.789 1.15143 0 
-115.963 9.07322 0 
-96.0927 3.26821 0 
-72.442 -10.7361 0 
-102.467 -12.4699 0 
-94.9792 -21.8754 0 
-93.9926 -0.965536 0 
-105.151 -40.2782 0 
-81.3934 -9.12484 0 
-76.6341 13.8622 0 
-117.941 25.3068 0 
-65.4676 -1.07217 0 
-112.532 -38.6954 0 
-98.3649 21.3761 0 
-103.762 28.4052 0 
-126.106 -52.8976 0 
-85.4042 -21.1397 0 
-106.52 23.0988 0 
-101.956 -22.406 0 
-143.877 26.1325 0 
-111.383 29.3906 0 
-128.981 20.1659 0 
-83.1042 -30.8602 0 
-93.4528 -11.9513 0 
-133.351 -11.3902 0 
-79.3708 8.33437 0 
-78.4856 -4.35659 0 
-122.046 -15.9684 0 
-67.0782 -18.657 0 
-143.773 -14.3486 0 
-108.767 -16.9538 0 
-94.8676 -42.734 0 
-89.5912 13.4989 0 
-150.669 6.05595 0 
-135.035 -2.91 0 
-102.135 11.2683 0 
-111.59 -0.326325 0 
-72.4347 -12.3751 0 
-117.258 11.4504 0 
-94.4622 61.466 0 
-100.838 42.9149 0 
-113.801 32.0998 0 
-97.8475 17.2413 0 
-114.191 -4.96449 0 
-87.2575 17.94 0 
-117.87 17.3822 0 
-91.4146 87.6317 0 
-64.1103 25.8205 0 
-97.003 37.8814 0 
-83.8354 51.6198 0 
-101.74 44.3831 0 
-84.6332 64.3939 0 
-96.7867 55.7761 0 
-75.934 40.0006 0 
-29.3013 72.5495 0 
-48.6575 57.3883 0 
-66.3922 64.8551 0 
-75.8082 55.1386 0 
-84.611 58.1601 0 
-71.0022 42.8951 0 
-138.75 -131.646 0 
-71.7331 71.492 0 
-88.017 59.9406 0 
-61.5785 81.1895 0 
-59.3974 91.1071 0 
-102.373 92.3961 0 
-105.253 106.725 0 
-93.5384 62.8974 0 
-70.4002 75.9301 0 
-78.5267 -157.065 0 
-82.6229 98.0035 0 
-159.043 -126.686 0 
-162.887 -142.555 0 
-78.7821 120.047 0 
-98.3978 -169.137 0 
-73.6777 104.348 0 
-85.1451 -136.857 0 
-138.681 -106.363 0 
-164.318 -129.066 0 
-154.228 -130.327 0 
-116.687 -113.714 0 
-170.628 -129.538 0 
-153.523 -136.182 0 
-92.3189 -125.633 0 
-141.273 -111.862 0 
-155.759 -78.0368 0 
-125.801 -116.135 0 
-77.8487 -102.536 0 
-124.431 -96.3636 0 
-124.163 -82.6614 0 
-127.995 -89.8808 0 
-169.55 -79.6017 0 
-134.497 -96.689 0 
-139.949 -113.198 0 
-147.09 -102.998 0 
-126.801 -78.2824 0 
-161.073 -117.977 0 
-115.428 -151.467 0 
-123.285 -100.09 0 
-112.312 -117.908 0 
-118.366 -150.173 0 
-150.555 -94.1765 0 
-148.629 -95.9289 0 
-89.8194 -103.499 0 
-125.707 -124.248 0 
-157.52 -97.9339 0 
-160.904 -103.065 0 
-152.295 -124.554 0 
-119.682 -109.089 0 
-168.39 -90.6687 0 
-139.178 -98.6858 0 
-166.082 -91.6929 0 
-165.58 -91.5314 0 
-124.815 -117.137 0 
-122.898 -130.057 0 
-161.449 -117.487 0 
-133.403 -105.243 0 
-138.389 -98.0165 0 
-129.105 -99.5833 0 
-166.218 -125.241 0 
-104.485 -100.38 0 