<VTKFile type="UnstructuredGrid" version="0.1" byte_order="BigEndian">
  <UnstructuredGrid>
        <Piece NumberOfPoints="8000" NumberOfCells="0" Time= "0.49">      <Points>
        <DataArray name="Position" type="Float32"  NumberOfComponents= "3"  format="ascii">

26.2623 34.3381 0 
30.2885 15.4886 0 
33.4052 7.11679 0 
31.3359 12.8736 0 
35.0463 1.94117 0 
33.9929 4.1282 0 
34.402 8.35679 0 
36.1406 10.0825 0 
35.7205 19.4913 0 
36.0409 26.5776 0 
35.8252 31.2523 0 
33.9126 33.2226 0 
35.5149 38.6788 0 
36.0132 1.52237 0 
38.4013 0.863501 0 
36.7802 2.34214 0 
37.5769 2.63062 0 
37.6507 5.77005 0 
37.3556 4.56162 0 
36.4778 4.83693 0 
36.6863 7.8634 0 
38.4089 10.8206 0 
36.7155 12.088 0 
38.682 12.9293 0 
37.1066 14.0308 0 
38.5539 12.4016 0 
38.0329 16.4756 0 
37.8966 17.8042 0 
37.6627 19.628 0 
37.5047 22.1159 0 
38.2549 20.2998 0 
37.4297 20.8056 0 
38.3574 23.2257 0 
37.8618 25.7355 0 
36.773 26.2054 0 
36.4726 28.1883 0 
38.6668 30.4819 0 
36.5974 31.9091 0 
37.787 33.5953 0 
38.4273 34.596 0 
37.602 32.7747 0 
37.823 35.7571 0 
37.2434 36.2688 0 
38.5302 36.2541 0 
40.672 1.35987 0 
40.6858 1.9453 0 
40.6966 4.81429 0 
40.8212 3.24755 0 
40.3132 3.16986 0 
40.6948 6.09529 0 
39.7538 4.15786 0 
39.344 5.23753 0 
40.4648 7.76704 0 
40.4084 7.35767 0 
38.8779 9.13494 0 
38.6799 8.08057 0 
41.1145 10.1679 0 
41.0988 11.9878 0 
40.1606 9.84346 0 
41.441 12.6988 0 
39.7084 12.8694 0 
38.6589 15.7095 0 
40.5277 15.2534 0 
39.5986 17.0286 0 
40.7563 19.3195 0 
39.7208 18.2035 0 
38.7737 22.9676 0 
40.6886 22.9102 0 
39.9488 22.3623 0 
39.4317 24.4453 0 
40.7033 24.0491 0 
39.8564 26.5046 0 
41.1806 24.5118 0 
38.9611 26.5856 0 
40.9802 26.3022 0 
41.1251 28.0041 0 
39.0575 29.2756 0 
41.0353 26.9884 0 
38.9891 29.3325 0 
40.2145 30.4889 0 
39.2998 30.4125 0 
41.2158 30.5212 0 
40.6591 32.2907 0 
40.18 33.4799 0 
40.8666 33.0678 0 
40.4099 33.6428 0 
39.8014 32.8417 0 
40.5206 35.8956 0 
38.7531 36.0904 0 
39.7823 36.1103 0 
39.9449 34.6944 0 
39.7936 0.515616 0 
41.1307 37.6237 0 
43.3368 37.9649 0 
42.1851 0.116748 0 
41.5901 0.916963 0 
41.3652 1.44619 0 
42.8946 1.49579 0 
43.1922 0.54751 0 
42.9815 39.4701 0 
42.1888 3.55948 0 
42.184 2.56056 0 
41.2562 2.51598 0 
41.6036 2.917 0 
41.3029 2.07513 0 
41.5723 1.7053 0 
41.7195 3.36458 0 
43.4692 3.68721 0 
41.406 2.74771 0 
43.3025 1.93873 0 
41.607 1.76941 0 
42.6106 3.74681 0 
42.3496 1.72124 0 
43.8013 5.47907 0 
41.3749 4.99987 0 
42.8912 5.68662 0 
41.6144 6.69352 0 
41.7107 6.517 0 
43.5169 6.05655 0 
42.3126 4.08594 0 
41.8228 6.41767 0 
42.0513 5.37168 0 
41.7953 5.80358 0 
42.7853 5.66032 0 
42.7485 6.61625 0 
43.2922 8.02713 0 
42.8003 8.22459 0 
42.7637 9.62818 0 
42.9316 7.99077 0 
41.261 8.26718 0 
41.8741 9.7326 0 
43.5533 10.9631 0 
42.0548 11.5731 0 
42.9244 13.4344 0 
42.8656 14.2184 0 
42.0583 13.324 0 
42.0501 12.868 0 
43.3331 13.4665 0 
42.1652 14.9968 0 
42.8427 16.7684 0 
42.7116 15.4691 0 
42.794 16.3573 0 
42.2105 15.166 0 
41.6803 15.8473 0 
43.3759 16.9142 0 
41.5656 16.8735 0 
42.5307 16.5131 0 
41.6487 18.5078 0 
41.1495 17.4286 0 
41.6908 22.1406 0 
43.3567 19.579 0 
42.6444 20.2216 0 
42.6279 21.0936 0 
42.2515 21.8548 0 
41.6211 21.2699 0 
43.5792 21.9235 0 
42.6804 23.6173 0 
42.8832 23.5436 0 
41.6711 23.1841 0 
43.6228 22.4037 0 
43.1078 22.298 0 
42.8827 24.1705 0 
42.8473 24.5869 0 
43.3895 25.7491 0 
42.2562 24.9974 0 
41.3832 28.4261 0 
42.4457 27.2578 0 
43.4166 27.9138 0 
41.174 27.0508 0 
42.1333 29.5439 0 
41.1146 27.2589 0 
42.4676 27.7519 0 
43.2338 27.6811 0 
43.059 27.7669 0 
41.6911 27.6344 0 
41.5494 28.6082 0 
42.3461 31.387 0 
42.3587 31.7781 0 
41.5333 29.602 0 
42.6347 32.1958 0 
43.0646 32.6198 0 
43.3652 31.6772 0 
41.8458 33.4224 0 
41.579 31.8496 0 
42.2946 32.1054 0 
43.8338 32.4334 0 
42.233 33.0973 0 
43.412 35.9534 0 
42.8602 34.6397 0 
43.2411 35.7871 0 
41.2291 34.3928 0 
43.5109 35.1383 0 
43.5399 34.9091 0 
42.8239 35.499 0 
42.4248 36.3018 0 
42.0072 36.9752 0 
43.6019 37.0762 0 
42.7418 36.992 0 
43.5466 37.4086 0 
42.5792 37.4065 0 
41.7496 38.795 0 
44.109 38.0363 0 
45.7441 1.25057 0 
45.3642 38.6625 0 
46.2677 0.719739 0 
43.8409 39.9786 0 
45.9569 0.114591 0 
45.9838 39.3738 0 
45.8427 39.443 0 
44.503 0.559032 0 
44.753 38.6375 0 
45.2018 39.604 0 
45.8878 38.1537 0 
45.3836 37.8704 0 
45.8675 1.73777 0 
44.3265 2.93819 0 
46.0335 4.50349 0 
44.9545 3.3514 0 
45.9133 2.73392 0 
44.9909 3.24337 0 
43.8493 4.06377 0 
45.4181 3.05053 0 
45.7448 1.70019 0 
44.0257 3.6418 0 
45.5415 4.01612 0 
44.4428 2.46844 0 
46.213 5.55183 0 
45.6076 4.61309 0 
44.1291 5.50453 0 
44.3763 4.46652 0 
45.3851 4.2699 0 
43.735 6.00686 0 
44.3773 4.73416 0 
44.418 5.70865 0 
44.4236 4.69128 0 
45.7802 9.27761 0 
45.1466 8.28242 0 
44.0583 7.27363 0 
45.0365 7.73997 0 
45.5138 10.7095 0 
44.2882 10.1138 0 
43.7839 9.55599 0 
44.3426 11.3498 0 
46.2745 10.8229 0 
44.549 9.84224 0 
45.2748 10.8394 0 
44.9002 10.7326 0 
45.0579 10.1326 0 
45.8022 11.9179 0 
45.6679 12.6342 0 
45.2505 12.9546 0 
46.0491 13.406 0 
45.4444 12.4612 0 
45.029 12.8804 0 
45.4596 14.0786 0 
43.973 12.9589 0 
45.4252 11.6782 0 
44.4682 13.029 0 
45.9373 15.3806 0 
45.3383 16.0977 0 
45.7378 14.7795 0 
45.7944 16.7231 0 
43.4812 14.9672 0 
44.9992 17.173 0 
44.3258 15.1386 0 
44.9431 15.4368 0 
44.5374 15.6576 0 
43.8905 16.0503 0 
43.9698 17.4305 0 
44.875 19.1699 0 
44.4252 17.1591 0 
44.8043 18.2891 0 
44.8899 18.0382 0 
46.1894 17.4543 0 
45.8688 19.1625 0 
46.103 17.4157 0 
45.2714 19.5964 0 
45.1248 17.2913 0 
45.9233 18.1868 0 
45.1433 18.2443 0 
44.5826 18.915 0 
44.4051 17.0509 0 
44.3157 21.2552 0 
45.2484 19.4671 0 
44.447 20.6317 0 
44.5818 22.0811 0 
44.2839 20.5258 0 
46.2721 22.5837 0 
44.1842 18.851 0 
45.8609 23.2013 0 
45.7243 23.1274 0 
44.0827 23.6623 0 
45.7647 21.9183 0 
45.1842 23.0103 0 
45.9679 24.2459 0 
45.1912 23.4694 0 
45.4236 26.8598 0 
44.4571 25.275 0 
45.2074 25.8106 0 
45.7856 26.2695 0 
45.9577 28.7416 0 
45.9869 28.5486 0 
44.0098 28.9421 0 
45.1012 28.8143 0 
44.2278 28.8549 0 
44.6131 27.5383 0 
44.1628 27.5304 0 
44.1476 27.208 0 
44.613 29.4628 0 
45.8097 28.1829 0 
46.0021 29.3299 0 
44.569 30.6991 0 
44.3919 30.2622 0 
45.7945 29.6354 0 
43.9226 31.0251 0 
44.2132 30.1385 0 
46.3779 30.3831 0 
44.4995 31.6192 0 
46.0732 31.4835 0 
44.9957 30.5799 0 
44.2928 30.3154 0 
44.7999 30.4001 0 
45.876 31.0541 0 
43.8487 30.6649 0 
45.7389 30.1745 0 
44.6223 29.3841 0 
45.6062 31.6645 0 
45.5391 31.6283 0 
45.6708 32.2576 0 
44.7431 32.4767 0 
45.93 34.2231 0 
45.7725 32.9457 0 
44.9664 32.0306 0 
45.5187 34.2767 0 
44.2028 33.2851 0 
44.1343 33.2069 0 
43.8529 36.2396 0 
43.9335 34.4791 0 
45.9781 36.2821 0 
45.5926 35.2015 0 
44.5712 34.885 0 
45.946 36.8004 0 
46.1302 35.6363 0 
45.3584 36.4763 0 
45.7045 36.0542 0 
43.9614 37.5427 0 
44.4308 36.6421 0 
46.1268 38.4285 0 
44.7918 38.4481 0 
44.8586 38.9795 0 
44.4341 38.5106 0 
43.7929 38.4403 0 
44.5979 37.7588 0 
44.0647 36.8273 0 
45.4373 36.5384 0 
47.822 1.21421 0 
47.6484 39.8196 0 
46.3162 37.7732 0 
47.565 0.133172 0 
48.609 1.69332 0 
46.6727 37.9082 0 
47.3484 37.7759 0 
47.463 37.6032 0 
47.9194 1.2463 0 
48.8261 1.4708 0 
47.3724 0.758285 0 
47.9771 1.4807 0 
46.4502 0.177191 0 
47.9389 0.516186 0 
47.1708 37.7989 0 
48.462 0.812894 0 
48.0089 38.1783 0 
46.4047 3.05486 0 
48.4515 2.28083 0 
48.3187 2.62902 0 
47.4176 3.03007 0 
47.592 4.07639 0 
47.9641 3.81871 0 
46.6251 4.56238 0 
48.1849 5.53181 0 
48.4717 6.50816 0 
46.2926 4.67006 0 
48.8632 5.71761 0 
47.4665 6.20007 0 
46.4746 6.45555 0 
48.4304 5.22163 0 
48.5625 5.71872 0 
47.3961 6.58015 0 
48.0465 4.74006 0 
47.1785 7.61874 0 
46.4531 7.98449 0 
46.9841 6.60728 0 
46.8226 7.85409 0 
47.2208 6.93056 0 
46.3604 8.02828 0 
46.2324 9.26609 0 
46.505 7.57001 0 
47.1787 8.18971 0 
47.4093 8.15957 0 
47.1018 9.19375 0 
48.6111 11.1687 0 
47.868 11.6441 0 
47.603 8.83237 0 
47.5907 11.7914 0 
47.0778 10.8802 0 
46.3223 9.62112 0 
47.3313 10.7907 0 
48.6247 11.7811 0 
46.1011 10.5699 0 
47.9243 11.817 0 
46.3507 12.8449 0 
46.6149 12.1556 0 
47.5039 12.0744 0 
46.7567 12.8092 0 
48.0521 14.0588 0 
47.57 13.8297 0 
46.7914 12.5532 0 
47.4395 13.794 0 
47.2211 12.9501 0 
47.3343 13.8176 0 
48.2562 13.3358 0 
48.2625 13.3449 0 
47.2944 11.9268 0 
48.5084 13.3965 0 
48.4406 11.7117 0 
48.0461 12.4934 0 
48.7197 15.625 0 
46.7787 16.816 0 
47.4754 16.3033 0 
46.8353 15.318 0 
47.8509 15.2137 0 
47.7871 15.0225 0 
47.4421 16.7261 0 
47.751 15.6708 0 
48.0871 17.58 0 
46.8711 15.9983 0 
47.5877 16.664 0 
47.2788 15.8611 0 
47.297 15.4792 0 
47.8393 15.5274 0 
47.6285 16.3352 0 
48.0291 15.0554 0 
47.4848 14.4846 0 
46.4862 14.5907 0 
47.3567 18.5276 0 
48.3117 17.8386 0 
48.1112 18.8312 0 
47.3717 18.1967 0 
46.5282 16.8496 0 
46.5166 17.06 0 
46.4795 18.3623 0 
47.055 17.9215 0 
47.2176 17.4113 0 
47.9244 18.2783 0 
47.5067 17.8047 0 
46.5049 19.2162 0 
48.1081 17.6948 0 
47.2285 17.8861 0 
48.2335 18.9699 0 
46.9477 20.5005 0 
48.1832 19.555 0 
48.5899 21.0677 0 
48.2196 20.2571 0 
48.421 20.8811 0 
47.1194 21.2668 0 
47.6313 21.9358 0 
46.7335 21.5605 0 
46.719 21.9549 0 
48.2725 19.9839 0 
47.8702 21.0153 0 
47.2346 20.0439 0 
47.7762 20.9186 0 
46.6985 20.257 0 
47.3607 20.5099 0 
46.7928 22.5285 0 
47.3141 22.4349 0 
47.1017 24.0136 0 
48.2367 22.9546 0 
46.3203 22.3617 0 
46.6175 24.9661 0 
47.6421 21.8354 0 
47.5648 23.9382 0 
47.9429 25.4915 0 
46.3345 26.7509 0 
47.6153 24.845 0 
46.689 25.6183 0 
47.8808 24.7791 0 
48.2361 26.0095 0 
48.1316 24.8697 0 
48.1624 26.6901 0 
46.2196 26.7677 0 
47.302 24.7749 0 
48.69 26.055 0 
48.2507 26.6169 0 
47.7136 26.6477 0 
48.8387 28.6423 0 
47.7467 28.1287 0 
47.4298 28.3812 0 
46.8514 28.1813 0 
48.4891 27.4616 0 
47.5983 28.8426 0 
46.9928 27.277 0 
48.0007 27.467 0 
47.2505 29.2213 0 
46.4837 27.7375 0 
46.5132 30.5197 0 
48.2519 30.6672 0 
48.0692 30.3967 0 
47.3113 31.9774 0 
48.5576 28.8972 0 
46.9921 29.111 0 
48.2574 30.8519 0 
48.1056 31.4462 0 
47.0591 30.3895 0 
47.647 30.5278 0 
47.72 30.45 0 
48.2643 30.1994 0 
[...]
      <PointData Vectors="vector">
        <DataArray type="Float32" Name="Velocity" NumberOfComponents="3" format="ascii">

-247.14 -185.82 0 
-289.161 -95.444 0 
-231.477 -103.832 0 
-307.199 -136.999 0 
-217.516 -134.613 0 
-235.65 -128.296 0 
-274.553 -143.539 0 
-305.737 -150.017 0 
-282.514 -115.992 0 
-268.388 -159.065 0 
-279.632 -154.63 0 
-268.75 -108.909 0 
-238.338 165.081 0 
-308.309 -106.804 0 
-213.193 -122.681 0 
-234.294 -105.962 0 
-222.549 -80.1047 0 
-241.312 -101.006 0 
-292.271 -113.911 0 
-241.937 -193.416 0 
-206.117 -66.6284 0 
-278.915 -58.9707 0 
-294.532 -68.4882 0 
-250.167 -154.374 0 
-278.137 -181.025 0 
-213.661 38.8953 0 
-282.161 -145.089 0 
-264.426 -193.673 0 
-254.315 -170.353 0 
-279.053 -117.197 0 
-290.337 -52.2076 0 
-237.573 -137.332 0 
-312.347 -140.772 0 
-245.967 -108.333 0 
-243.197 -113.58 0 
-233.162 -22.4236 0 
-287.5 -65.9947 0 
-251.567 -250.68 0 
-292.819 -125.341 0 
-272.375 -127.919 0 
-243.275 -82.7776 0 
-275.925 -122.625 0 
-235.228 -90.2953 0 
-261.085 -135.772 0 
-264.427 -16.5461 0 
-261.421 -120.142 0 
-283.053 -83.6538 0 
-243.768 -52.304 0 
-210.098 -5.30039 0 
-239.304 -49.5155 0 
-270.487 -83.2789 0 
-268.884 -67.738 0 
-234.188 -195.166 0 
-239.837 -56.1965 0 
-262.671 -179.881 0 
-298.019 -104.611 0 
-220.278 35.0961 0 
-246.146 -70.848 0 
-264.605 -58.0888 0 
-312.912 -109.732 0 
-235.768 -203.749 0 
-260.376 -195.737 0 
-273.91 -63.5046 0 
-316.251 -87.5129 0 
-257.969 -160.792 0 
-285.672 -163.376 0 
-261.571 -56.9175 0 
-341.655 -182.25 0 
-244.171 -174.161 0 
-324.713 -205.971 0 
-310.757 -66.949 0 
-286.104 -54.0694 0 
-249.033 -191.788 0 
-242.786 -179.467 0 
-291.762 -125.485 0 
-270.872 -152.972 0 
-299.095 -173.001 0 
-302.688 -167.606 0 
-273.422 -195.577 0 
-288.002 -192.016 0 
-265.578 -37.7697 0 
-256.827 -208.149 0 
-313.764 -37.2408 0 
-229.274 54.2242 0 
-279.239 -196.933 0 
-322.026 -86.9012 0 
-225.115 -112.173 0 
-305.723 -186.429 0 
-301.76 -60.0495 0 
-252.528 -178.631 0 
-279.914 -168.687 0 
-279.689 -25.0054 0 
-239.455 -141.523 0 
-207.8 -112.45 0 
-292.716 -52.414 0 
-263.496 -22.6063 0 
-265.594 -71.0668 0 
-198.484 72.4156 0 
-280.528 -138.706 0 
-268.946 -157.778 0 
-211.637 -108.578 0 
-209.864 -116.504 0 
-296.432 -182.77 0 
-274.925 -135.151 0 
-276.512 -26.4355 0 
-298.488 -181.825 0 
-326.384 -105.069 0 
-238.169 -102.908 0 
-187.297 68.7791 0 
-244.548 -112.511 0 
-250.46 -43.2671 0 
-224.67 -70.964 0 
-237.493 -107.241 0 
-271.27 -215.314 0 
-200.879 -100.168 0 
-269.087 -69.9427 0 
-199.389 -106.567 0 
-239.408 -82.5178 0 
-266.761 -118.754 0 
-276.266 -202.32 0 
-282.577 -117.412 0 
-259.544 -120.347 0 
-247.887 -89.5501 0 
-267.65 -92.6903 0 
-250.443 36.3964 0 
-303.016 -71.1704 0 
-237.753 -113.614 0 
-250.545 -115.707 0 
-297.794 -230.57 0 
-201.157 107.792 0 
-306.377 -200.087 0 
-275.905 -200.762 0 
-225.79 -183.541 0 
-251.343 -118.5 0 
-256.247 -68.6665 0 
-262.417 -211.073 0 
-258.851 -193.453 0 
-244.8 -163.989 0 
-269.507 -72.8819 0 
-263.905 -224.129 0 
-263.254 -229.33 0 
-271.459 -62.3097 0 
-234.409 -65.2621 0 
-239.266 -179.362 0 
-268.403 -200.426 0 
-226.635 -56.6359 0 
-214.725 -49.3039 0 
-246.395 -135.041 0 
-279.602 -187.83 0 
-303.541 -73.4821 0 
-215.635 -217.292 0 
-289.19 -182.558 0 
-282.899 -99.0408 0 
-197.5 -202.53 0 
-285.844 -159.174 0 
-279.891 -87.9595 0 
-302.294 -70.0647 0 
-248.663 -160.36 0 
-262.321 -163.366 0 
-239.005 -74.4427 0 
-305.591 -187.104 0 
-284.178 -87.0736 0 
-291.557 -94.2169 0 
-264.468 -170.576 0 
-223.22 -154.505 0 
-269.097 -118.001 0 
-265.373 -64.5974 0 
-253.237 -169.105 0 
-285.752 -88.7371 0 
-264.502 -179.973 0 
-266.121 -153.641 0 
-246.708 9.98284 0 
-260.824 -137.558 0 
-285.315 -141.598 0 
-283.56 -133.376 0 
-175.89 -56.1794 0 
-207.92 -42.5255 0 
-252.812 -147.134 0 
-256.13 -136.357 0 
-264.51 -117.598 0 
-233.72 -140.751 0 
-317.822 -205.137 0 
-269.717 -32.2083 0 
-309.641 -271.251 0 
-221.348 -109.137 0 
-225.791 -105.737 0 
-258.354 -149.017 0 
-259.296 -152.85 0 
-278.883 -249.807 0 
-279.208 -150.562 0 
-222.348 -107.23 0 
-271.776 -247.827 0 
-247.94 28.6158 0 
-264.62 23.071 0 
-257.795 -9.93028 0 
-248.457 -132.772 0 
-288.129 -129.011 0 
-251.008 -132.711 0 
-264.714 -132.162 0 
-256.646 -117.301 0 
-275.383 -8.75581 0 
-309.945 -187.173 0 
-334.236 -167.562 0 
-322.145 -234.979 0 
-253.669 -8.01038 0 
-250.882 -143.903 0 
-311.678 -244.896 0 
-250.093 -106.998 0 
-269.43 -87.1561 0 
-228.126 -80.6622 0 
-240.165 -106.364 0 
-240.487 -0.236295 0 
-242.775 -140.968 0 
-231.398 -71.9454 0 
-319.842 -121.364 0 
-218.867 -67.3734 0 
-285.506 -210.069 0 
-247.642 -85.2184 0 
-305.193 -162.433 0 
-276.021 -243.811 0 
-205.975 -65.4805 0 
-276.9 -212.795 0 
-294.446 -228.502 0 
-277.634 -139.316 0 
-278.359 -160.32 0 
-254.795 -84.258 0 
-278.115 -92.6986 0 
-275.193 -185.87 0 
-217.008 -212.955 0 
-246.061 -77.8893 0 
-287.808 -83.9098 0 
-266.809 -102.921 0 
-271.886 -189.636 0 
-237.81 -177.211 0 
-261.597 -121.616 0 
-310.362 -199.121 0 
-266.311 -45.1739 0 
-267.108 -203.348 0 
-233.941 -130.737 0 
-247.277 7.63872 0 
-273.398 -238.574 0 
-200.233 -187.5 0 
-222.711 -175.76 0 
-290.718 -213.968 0 
-292.534 -172.141 0 
-250.795 -69.3774 0 
-229.402 -88.4698 0 
-223.866 -147.608 0 
-286.951 -175.608 0 
-240.641 -223.649 0 
-258.993 -202.452 0 
-239.163 -77.6096 0 
-199.214 -70.2105 0 
-264.574 -195.847 0 
-299.188 -160.234 0 
-255.437 -219.46 0 
-285.397 -224.473 0 
-243.663 -145.371 0 
-249.048 -41.0762 0 
-229.948 -136.574 0 
-269.633 -75.3599 0 
-260.159 -90.5038 0 
-260.595 -60.5371 0 
-261.296 -211.123 0 
-242.732 -198.197 0 
-245.579 -202.14 0 
-283.063 -226.453 0 
-239.735 -182.167 0 
-235.907 -182.636 0 
-321.028 -126.562 0 
-284.203 -183.989 0 
-293.627 -239.308 0 
-284.275 -235.185 0 
-255.952 -81.4786 0 
-259.694 -169.394 0 
-227.194 -179.613 0 
-231.967 -36.2469 0 
-304.784 -86.2995 0 
-257.951 -202.542 0 
-284.262 -231.944 0 
-249.31 -93.7447 0 
-275.217 -183.87 0 
-289.797 -185.103 0 
-235.255 -60.6786 0 
-234.725 -46.8529 0 
-285.531 -25.6352 0 
-281.219 -179.567 0 
-270.754 -172.634 0 
-231.118 -189.293 0 
-247.727 17.9072 0 
-269.59 -36.8504 0 
-235.417 -148.039 0 
-261.016 -194.215 0 
-268.966 -306.084 0 
-211.788 -61.5623 0 
-270.581 -196.144 0 
-278.011 -179.719 0 
-278.426 -39.6109 0 
-271.999 -205.014 0 
-236.742 -138.13 0 
-280.18 -138.282 0 
-195.958 -57.8673 0 
-284.928 -159.345 0 
-267.77 -38.3222 0 
-273.626 -188.079 0 
-253.971 -193.314 0 
-242.777 -87.8734 0 
-267.255 -159.877 0 
-276.9 -78.4019 0 
-207.658 -144.625 0 
-275.095 -186.325 0 
-303.008 -188.208 0 
-300.105 -160.051 0 
-239.594 -12.1068 0 
-288.974 -37.9346 0 
-286.266 -154.357 0 
-280.514 -42.2192 0 
-246.24 -184.727 0 
-283.713 -182.56 0 
-235.047 -148.679 0 
-231.505 -78.3977 0 
-291.533 -129.547 0 
-288.803 -239.03 0 
-304.712 -149.498 0 
-240.931 -169.621 0 
-258.478 -151.926 0 
-317.384 -131.312 0 
-290.192 -165.772 0 
-232.108 -137.183 0 
-224.808 -146.527 0 
-270.443 -162.762 0 
-236.79 -33.2482 0 
-265.863 88.6023 0 
-230.156 -186.025 0 
-250.931 -119.313 0 
-248.959 -149.817 0 
-270.978 -54.0353 0 
-262.348 -71.975 0 
-256.277 -55.8019 0 
-264.029 -76.9578 0 
-210.822 -138.215 0 
-228.929 -152.38 0 
-312.837 -135.6 0 
-313.022 -164.975 0 
-281.413 -124.264 0 
-285.173 16.729 0 
-270.97 -231.681 0 
-283.405 -158.397 0 
-267.822 -143.373 0 
-236.391 -96.8128 0 
-247.871 -110.408 0 
-281.767 -160.425 0 
-288.408 -133.4 0 
-238.909 -237.448 0 
-305.907 -135.04 0 
-200.095 27.9944 0 
-288.938 -120.55 0 
-208.916 70.7919 0 
-217.978 -10.6608 0 
-253.82 -140.058 0 
-227.979 -133.217 0 
-230.062 -138.584 0 
-243.84 -148.651 0 
-241.465 -230.166 0 
-281.033 -135.203 0 
-254.115 -29.5271 0 
-263.912 -21.5727 0 
-231.282 -147.032 0 
-242.286 47.1808 0 
-204.413 -58.7869 0 
-266.498 -113.236 0 
-272.486 -130.042 0 
-277.62 -150.101 0 
-286.691 -140.714 0 
-269.77 -101.659 0 
-223.745 -67.4224 0 
-235.027 -217.194 0 
-220.093 82.8208 0 
-232.687 20.0749 0 
-242.506 -122.891 0 
-246.588 82.2754 0 
-235.303 -101.539 0 
-314.523 -146.32 0 
-308.81 -119.584 0 
-224.611 -84.3755 0 
-236.116 -88.2915 0 
-269.582 -145.656 0 
-244.513 -125.283 0 
-284.74 -135.186 0 
-304.617 -68.7831 0 
-249.645 -206.374 0 
-226.622 -180.524 0 
-209.229 -96.3071 0 
-217.244 -53.9567 0 
-249.417 -202.454 0 
-256.345 -121.986 0 
-238.078 10.8939 0 
-236.076 -104.748 0 
-256.517 -118.588 0 
-236.167 -215.698 0 
-283.8 -238.147 0 
-255.804 -208.806 0 
-254.528 -198.557 0 
-242.081 -153.344 0 
-221.775 -199.971 0 
-279.714 -76.3268 0 
-318.992 -218.471 0 
-266.182 -100.492 0 
-218.852 -223.494 0 
-272.619 -71.9648 0 
-247.733 -227.504 0 
-263.093 -232.148 0 
-270.138 -119.335 0 
-290.461 -238.41 0 
-263.676 -161.31 0 
-278.747 -64.6436 0 
-279.037 -158.508 0 
-306.249 -211.489 0 
-285.581 -151.207 0 
-247.396 -19.7849 0 
-251.802 -68.9307 0 
-268.807 -195.118 0 
-279.542 -187.561 0 
-217.46 -48.952 0 
-246.488 -233.378 0 
-193.299 -73.4518 0 
-248.518 -7.7605 0 
-258.775 -195.739 0 
-267.261 -214.567 0 
-261.124 -184.963 0 
-292.135 -143.872 0 
-259.063 -104.204 0 
-242.416 -215.876 0 
-274.892 -219.656 0 
-311.481 -140.821 0 
-244.117 -219.202 0 
-263.237 -191.237 0 
-263.736 -189.315 0 
-251.508 43.6215 0 
-214.464 -73.0787 0 
-296.405 -212.338 0 
-291.636 -206.273 0 
-268.942 -58.2175 0 
-260.802 -238.343 0 
-272.427 -194.749 0 
-241.435 -210.728 0 
-214.682 -80.4834 0 
-262.43 -83.5022 0 
-266.994 -189.822 0 
-268.945 -216.399 0 
-281.031 -171.954 0 
-257.609 -83.1487 0 
-228.327 -185.684 0 
-243.289 -226.902 0 
-255.298 -231.199 0 
-244.333 -211.339 0 
-257.045 -164.381 0 
-260.11 -234.249 0 
-228.524 -151.639 0 
-208.615 -194.842 0 
-207.186 -188.635 0 
-276.393 -74.1139 0 
-286.764 -209.678 0 
-288.028 -172.008 0 
-256.564 -110.509 0 
-248.504 -120.029 0 
-192.983 17.8374 0 
-282.473 -205.424 0 
-242.726 -191.502 0 
-284.388 -180.551 0 
-233.752 -171.026 0 
-267.858 -143.553 0 
-265.186 -146.095 0 
-222.109 -151.415 0 
-272.124 -65.6563 0 
-268.753 -175.408 0 
-261.569 -137.534 0 
-301.64 -253.236 0 
-214.529 -76.5632 0 
-309.902 -218.567 0 
-237.56 -151.316 0 
-233.264 -53.0339 0 
-276.51 -141.652 0 
-285.926 -153.05 0 
-225.92 -267.845 0 
-311.573 -198.613 0 
-275.785 -136.944 0 
-290.615 -291.911 0 
-287.155 -145.439 0 
-246.28 -138.707 0 
-269.391 -165.478 0 
-272.343 -146.234 0 
-191.81 -120.238 0 
-224.863 43.1481 0 
-252.47 -172.857 0 
-262.069 -182.683 0 
-214.418 59.452 0 
-237.253 -41.3304 0 
-258.194 -24.8745 0 
-280.212 -254.397 0 
-301.504 -187.801 0 
-192.156 12.2949 0 
-275.378 -189.013 0 
-278.892 -55.9092 0 
-251.781 -174.188 0 
-293.739 -39.9414 0 
-262.551 -281.138 0 
-286.172 -168.293 0 
-319.937 -186.146 0 
-225.198 -151.642 0 
-288.829 -179.803 0 
-277.999 -166.813 0 
-180.562 59.3917 0 
-237.209 -38.6793 0 
-263.895 -173.45 0 
-287.147 -225.511 0 
-239.687 -153.813 0 
-261.514 -97.3919 0 
-264.948 -162.004 0 
-252.955 -30.4126 0 
-316.561 -34.1423 0 
-265.93 -126.207 0 
-279.37 -107.352 0 
-285.716 -171.948 0 
-261.602 -1.56373 0 
-201.921 40.0941 0 
-254.898 -180.239 0 
-252.194 -153.828 0 
-215.343 4.95883 0 
-258.61 -139.705 0 
-202.715 9.90068 0 
-247.607 -247.228 0 
-266.295 -184.022 0 
-247.003 -98.5599 0 
-296.087 -60.0125 0 
-227.722 -15.1217 0 
-214.852 -137.521 0 
-211.974 41.6497 0 
-249.106 -20.8531 0 
-265.623 -27.5267 0 
-256.124 -155.739 0 
-248.165 -124.545 0 
-256.549 -147.434 0 
-233.664 -131.875 0 
-261.866 -137.097 0 
-229.628 -137.315 0 
-288.561 -261.412 0 
-226.045 -214.206 0 
-275.17 -238.059 0 
-271.985 -169.396 0 
-204.483 -114.449 0 
-247.144 -223.343 0 
-265.386 -115.216 0 
-280.292 -238.978 0 
-228.592 -17.3115 0 
-245.039 -48.2325 0 
-246.221 -138.295 0 
-205.163 -7.84923 0 
-261.977 -158.478 0 
-252.722 -8.39231 0 
-287.495 -153.908 0 
-290.02 13.4434 0 
-268.16 -172.525 0 
-224.119 -228.241 0 
-292.976 -135.177 0 
-193.088 -108.642 0 
-276.371 -182.549 0 
-269.312 -136.395 0 
-255.588 -114.38 0 
-268.529 -126.805 0 
-289.669 -247.13 0 
-239.967 -232.346 0 
-268.482 -157.318 0 
-255.919 -108.786 0 
-264.308 -228.162 0 
-280.1 -196.754 0 
-274.074 -285.156 0 
-277.622 -208.53 0 
-270.227 -133.444 0 
-200.92 -238.488 0 
-294.736 -165.674 0 
-258.863 -152.969 0 
-247.675 -212.319 0 
-212.528 -240.055 0 
-233.477 -105.71 0 
-250.582 -154.779 0 
-208.99 -97.197 0 
-246.886 -207.74 0 
-228.585 -100.016 0 
-282.808 -112.039 0 
-202.615 -221.278 0 
-212.514 -133.416 0 
-247.423 -215.292 0 
-202.476 -191.522 0 
-245.05 -100.91 0 
-273.097 -254.098 0 
-304.732 -226.664 0 
-256.844 -201.608 0 
-224.994 -116.6 0 
-255.866 -28.7018 0 
-210.536 -86.4188 0 
-255.7 -58.5821 0 
-209.382 -51.1382 0 
-267.817 -106.526 0 
-276.15 -107.721 0 
-269.701 -209.512 0 
-265.232 -213.554 0 
-270.52 -250.492 0 
-288.314 -103.914 0 
-310.174 -93.9656 0 
-264.096 -246.431 0 
-229.61 -106.376 0 
-296.248 -199.777 0 
-236.948 -44.8545 0 
-279.522 -94.5734 0 
-239.257 -115.566 0 
-244.084 -61.7847 0 
-253.873 -207.791 0 
-217.241 -111.848 0 
-235.275 -115.783 0 
-265.139 -205.989 0 
-291.671 -101.609 0 
-245.324 -87.3369 0 
-272.118 -196.983 0 
-290.299 -178.686 0 
-270.652 -189.711 0 
-268.547 -57.0548 0 
-296.423 -211.687 0 
-293.619 -111.284 0 
-229.858 -241.454 0 
-238.569 -238.846 0 
-276.577 -249.867 0 
-231.786 -142.652 0 
-145.735 88.3253 0 
-274.985 -94.3762 0 
-276.846 -158.811 0 
-238.016 91.7408 0 
-228.61 -130.608 0 
-232.757 -84.2165 0 
-274.092 -186.047 0 
-256.003 -229.94 0 
-261.551 -161.053 0 
-285.889 -212.972 0 
-234.163 -182.993 0 
-279 -181.843 0 
-211.418 -47.5915 0 
-235.014 -98.3587 0 
-312.957 -182.333 0 
-204.722 -57.4086 0 
-208.656 -197.878 0 
-224.741 -92.0157 0 
-264.216 -181.788 0 
-221.154 -155.034 0 
-242.11 -228.073 0 
-209.833 -98.4589 0 
-249.524 -96.5745 0 
-242.501 -210.875 0 
-277.466 -130.604 0 
-249.524 -180.219 0 
-296.57 -49.6379 0 
-231.59 -16.6965 0 
-259.638 -181.488 0 
-295.022 -212.15 0 
-253.829 -148.745 0 
-269.419 -209.179 0 
-227.327 -219.943 0 
-272.22 -179.758 0 
-293.211 -110.578 0 
-260.678 -88.9213 0 
-286.746 -177.964 0 
-260.376 -197.902 0 
-263.345 -226.742 0 
-214.031 -77.6157 0 
-285.808 -216.047 0 
-260.336 -243.441 0 
-264.145 -101.752 0 
-304.581 -123.596 0 
-279.365 -72.4766 0 
-277.178 -99.2955 0 
-236.636 -191.623 0 
-302.528 -228.391 0 
-242.617 -62.6747 0 
-257.622 -173.144 0 
-291.917 -160.939 0 
-282.94 -196.377 0 
-285.01 -70.404 0 
-257.473 -172.764 0 
-223.769 -184.749 0 
-223.278 -118.681 0 
-279.289 -97.3055 0 
-266.94 -208.996 0 
-269.054 -93.4674 0 
-260.05 -186.373 0 
-262.099 -82.5505 0 
-264.82 -70.506 0 
-201.866 -95.2919 0 
-249.004 -122.407 0 
-206.032 -184.822 0 
-222.72 -226.471 0 
-258.474 -212.076 0 
-243.918 -178.916 0 
-262.33 -205.019 0 
-244.264 -178.898 0 
-272.052 -216.429 0 
-256.934 -108.643 0 
-277.421 -143.686 0 
-214.095 -163.399 0 
-266.299 -187.943 0 
-242.722 -264.147 0 
-289.922 -167.218 0 
-295.625 -164.489 0 
-228.49 -146.6 0 
-312.106 -184.993 0 
-275.499 -182.111 0 
-234.334 -182.114 0 
-238.849 -173.719 0 
-243.509 -180.334 0 
-233.522 -163.727 0 
-282.137 -153.617 0 
-250.175 -183.328 0 
-283.922 -166.122 0 
-273.258 -46.4202 0 
-289.624 -150.241 0 
-283.422 -154.602 0 
-230.09 -211.315 0 
-233.374 -156.731 0 
-258.317 -183.597 0 
-223.458 -143.157 0 
-210.922 -188.995 0 
-264.225 -177.94 0 
-241.131 -129.517 0 
-282.088 -175.493 0 
-260.869 -219.644 0 
-280.803 -187.916 0 
-274.648 -198.066 0 
-242.127 -62.4419 0 
-272.229 -162.435 0 
-250.346 -165.199 0 
-225.385 -233.774 0 
-317.614 -194.151 0 
-249.448 -149.442 0 
-265.154 -51.5995 0 
-298.903 -153.567 0 
-277.945 -158.597 0 
-225.268 -160.278 0 
-231.802 -258.878 0 
-252.23 -179.518 0 
-237.933 -170.023 0 
-284.988 -145.798 0 
-247.479 -45.3486 0 
-296.688 -147.27 0 
-308.614 -145.207 0 
-223.853 -36.7247 0 
-203.574 -145.819 0 
-206.531 -149.501 0 
-293.829 -206.476 0 
-256.155 -162.748 0 
-244.141 -76.003 0 
-195.787 -147.202 0 
-232.349 -274.836 0 
-221.798 -178.704 0 
-272.226 -174.583 0 
-242.553 -159.208 0 
-277.983 -148.286 0 
-267.023 -140.35 0 
-232.936 -258.284 0 
-278.055 -162.651 0 
-220.389 -185.227 0 
-233.116 -164.173 0 
-250.67 -158.105 0 
-212.905 -60.6948 0 
-261.775 -189.401 0 
-323.626 -179.416 0 
-236.157 -150.349 0 
-285.685 -49.9249 0 
-281.048 -133.557 0 
-239.527 -135.622 0 
-255.389 -196.004 0 
-213.995 -193.109 0 
-195.583 -145.418 0 
-229.14 -165.589 0 
-257.396 -204.637 0 
-217.628 5.60386 0 
-205.961 -249.862 0 
-247.244 -163.404 0 
-202.776 -132.66 0 
-281.028 -138.31 0 
-253.826 -184.246 0 
-143.457 54.206 0 
-232.932 -170.627 0 
-272.511 -178.138 0 
-244.199 -44.8737 0 
-257.784 -119.28 0 
-291.09 -185.826 0 
-266.823 -133.688 0 
-268.406 -173.704 0 
-243.539 -177.75 0 
-226.474 -155.23 0 
-249.758 -130.76 0 
-268.966 -270.181 0 
-262.981 -164.498 0 
-219.911 -260.425 0 
-251.548 -182.525 0 
-176.807 -157.411 0 
-266.531 -227.371 0 
-272.096 -204.566 0 
-229.454 -24.2305 0 
-234.075 -152.893 0 
-301.424 -246.334 0 
-202.521 -189.06 0 
-231.773 -150.832 0 
-241.334 -245.148 0 
-265.132 -272.648 0 
-281.9 -132.081 0 
-287.654 -158.594 0 
-262.768 -129.245 0 
-248.684 -96.1094 0 
-205.215 -23.4767 0 
-236.52 -170.078 0 
-266.56 -91.8085 0 
-284.444 -155.463 0 
-240.338 -226.539 0 
-266.042 -152.976 0 
-276.942 -141.579 0 
-238.756 -119.69 0 
-277.883 -242.167 0 
-267.231 -141.343 0 
-279.032 -243.299 0 
-307.646 -127.524 0 
-244.418 -121.137 0 
-204.713 -85.0546 0 
-230.395 -205.544 0 
-258.021 -109.34 0 
-197.066 78.8098 0 
-219.932 -146.553 0 
-215.645 -98.1444 0 
-291.236 -232.993 0 
-294.865 -238.899 0 
-288.875 -132.436 0 
-248.232 -38.8164 0 
-213.042 -252.87 0 
-282.367 -244.442 0 
-231.556 -144.671 0 
-205.844 -6.58509 0 
-247.189 -113.51 0 
-247.583 -135.199 0 
-226.497 -261.478 0 
-207.039 -128.19 0 
-272.163 -211.333 0 
-260.552 -127.811 0 
-254.771 -232.889 0 
-265.511 -95.0185 0 
-250.542 -144.813 0 
-215.594 -229.873 0 
-235.252 -61.1279 0 
-265.11 -115.509 0 
-225.626 -111.311 0 
-262.101 -207.424 0 
-299.308 -147.273 0 
-187.39 -149.214 0 
-208.321 5.73618 0 
-240.875 -85.5757 0 
-214.68 -77.0876 0 
-145.179 97.4873 0 
-249.259 -110.314 0 
-207.607 -29.6428 0 
-226.498 -71.7381 0 
-283.588 -116.382 0 
-269.956 -227.945 0 
-238.974 -132.827 0 
-301.305 -236.211 0 
-277.316 -211.547 0 
-276.594 -225.651 0 
-228.48 -247.409 0 
-293.191 -207.968 0 
-296.846 -209.045 0 
-255.466 -215.773 0 
-276.708 -11.6312 0 
-234.049 -230.099 0 
-253.35 -36.9478 0 
-277.483 -205.513 0 
-219.083 -100.932 0 
-272.384 -114.343 0 
-276.03 -227.004 0 
-262.606 -231.735 0 
-224.264 -100.231 0 
-240.295 -117.363 0 
-255.018 -174.295 0 
-296.602 -117.547 0 
-300.883 -87.8488 0 
-241.709 -103.261 0 
-250.342 -69.6841 0 
-238.177 -159.861 0 
-229.713 -66.3697 0 
-248.681 -191.777 0 
-287.269 -139.664 0 
-189.247 -183.693 0 
-215.305 110.483 0 
-255.929 -191.744 0 
-235.502 -225.414 0 
-259.537 -240.055 0 
-243.07 -193.101 0 
-239.191 -162.982 0 
-221.172 -70.7803 0 
-229.148 -160.751 0 
-260.196 -103.508 0 
-259.225 -100.69 0 
-247.836 -74.3663 0 
-230.659 -83.8038 0 
-266.396 -186.148 0 
-243.882 -196.574 0 
-249.197 -167.745 0 
-233.497 -135.354 0 
-255.079 -204.827 0 
-267.338 -169.322 0 
-258.032 -184.511 0 
-254.517 -153.019 0 
-182.219 85.2406 0 
-194.508 -100.735 0 
-291.807 -175.804 0 
-221.731 -97.5388 0 
-259.677 -176.028 0 
-277.185 -198.523 0 
-192.227 -194.93 0 
-287.211 -182.49 0 
-232.539 -219.228 0 
-256.117 42.7304 0 
-208.88 -74.364 0 
-218.022 37.718 0 
-251.227 -91.4773 0 
-256.85 -49.0148 0 
-259.08 -116.964 0 
-249.052 -174.982 0 
-202.875 -210.56 0 
-234.713 -205.566 0 
-254.286 -285.791 0 
-307.88 -210.112 0 
-251.578 -164.939 0 
-204.647 -190.463 0 
-200.873 -160.45 0 
-265.906 -210.725 0 
-289.71 -210.631 0 
-274.405 -178.326 0 
-294.189 -107.698 0 
-253.381 -235.809 0 
-238.017 -207.828 0 
-234.448 -65.6119 0 
-213.531 -206.044 0 
-258.858 -203.865 0 
-305.235 -204.541 0 
-188.651 -88.2223 0 
-226.107 -185.987 0 
-249.207 -173.43 0 
-236.736 -85.9923 0 
-253.894 -154.721 0 
-185.251 -179.996 0 
-208.615 -47.6598 0 
-234.683 -182.231 0 