<VTKFile type="UnstructuredGrid" version="0.1" byte_order="BigEndian">
  <UnstructuredGrid>
        <Piece NumberOfPoints="8000" NumberOfCells="0" Time= "0.215">      <Points>
        <DataArray name="Position" type="Float32"  NumberOfComponents= "3"  format="ascii">

93.5369 5.23613 0 
93.6533 7.0667 0 
92.6956 18.2781 0 
93.6085 24.541 0 
93.6468 30.745 0 
93.8445 33.9507 0 
93.0476 37.9994 0 
92.4293 38.5971 0 
96.5108 3.61369 0 
96.4079 3.57141 0 
96.3012 2.74139 0 
94.1952 5.6657 0 
96.6665 6.46491 0 
94.6703 6.53038 0 
96.5623 5.35951 0 
94.68 6.11582 0 
94.3362 5.76198 0 
96.7183 5.02562 0 
96.6722 6.59132 0 
95.9342 6.7444 0 
96.1917 6.45094 0 
95.7481 8.49314 0 
95.8282 8.59078 0 
95.9757 9.33686 0 
95.0011 7.12453 0 
96.6516 10.9592 0 
95.007 9.85816 0 
95.9224 10.417 0 
96.5201 17.4398 0 
94.4054 20.0276 0 
94.4814 18.2836 0 
95.8943 19.412 0 
95.972 22.4302 0 
96.6344 20.3648 0 
96.7502 20.5276 0 
94.3622 24.707 0 
95.5616 24.4018 0 
96.3743 23.7983 0 
96.38 27.0454 0 
96.7926 26.6156 0 
94.7082 25.7537 0 
95.5487 26.5288 0 
95.4524 30.2073 0 
95.9855 28.8098 0 
95.5477 29.6101 0 
95.9995 32.9007 0 
94.7322 30.7215 0 
95.2405 33.3691 0 
96.5294 33.2072 0 
96.7897 34.8117 0 
96.7799 33.8469 0 
96.8033 37.1263 0 
95.4011 36.3112 0 
96.0256 39.0586 0 
98.7997 0.0877715 0 
98.9417 0.482938 0 
99.2868 37.7286 0 
97.8507 1.53421 0 
99.2433 1.95047 0 
99.0887 0.987091 0 
97.7016 3.03134 0 
97.5998 3.95684 0 
97.0074 3.13858 0 
97.018 4.05358 0 
98.1903 3.42315 0 
98.6572 4.07576 0 
98.7281 3.10142 0 
97.3515 2.19409 0 
98.0233 2.64535 0 
99.1735 5.43384 0 
97.6371 4.85617 0 
96.877 6.1997 0 
98.5042 5.86141 0 
97.768 7.06554 0 
98.6022 6.25163 0 
97.1484 5.98489 0 
98.2919 6.05757 0 
97.0477 6.03024 0 
98.9701 4.56685 0 
98.9251 5.59116 0 
97.1575 6.00796 0 
98.5822 4.59392 0 
97.5045 9.35712 0 
99.1555 7.52057 0 
96.9415 7.02836 0 
98.7185 8.98754 0 
97.0512 9.38571 0 
97.7824 9.06976 0 
97.12 7.28495 0 
98.056 8.11641 0 
98.9773 7.81249 0 
96.6211 8.27294 0 
98.4419 10.8668 0 
99.2949 10.1182 0 
99.1601 11.2754 0 
98.5139 11.0206 0 
98.0575 11.5184 0 
99.1767 10.203 0 
98.4009 11.9485 0 
96.9977 12.2545 0 
97.913 12.8462 0 
98.3665 13.8385 0 
97.5505 14.672 0 
98.7963 16.5234 0 
98.9356 15.2459 0 
97.8808 15.9643 0 
98.2551 15.0135 0 
97.2727 16.9797 0 
99.3429 16.2026 0 
98.8689 17.0352 0 
98.1339 19.1952 0 
99.2628 17.8158 0 
98.3964 19.306 0 
99.2395 19.7605 0 
98.2496 19.428 0 
97.7855 18.4884 0 
98.8111 17.4876 0 
98.6484 22.5725 0 
98.5201 21.4599 0 
99.0348 20.5016 0 
97.2157 23.2657 0 
98.1033 25.2236 0 
98.079 22.8363 0 
98.1156 23.3589 0 
99.0623 24.385 0 
99.3904 25.7648 0 
99.3173 27.3269 0 
97.3149 25.5749 0 
97.9824 25.9411 0 
97.0756 25.3773 0 
98.7293 27.6525 0 
98.1366 28.0141 0 
97.2802 32.1253 0 
98.7924 31.496 0 
98.2922 30.7098 0 
97.0698 34.1634 0 
98.6368 33.4555 0 
99.374 34.3788 0 
97.9165 35.2726 0 
98.4146 35.857 0 
97.7243 36.5757 0 
97.3766 36.0581 0 
98.9396 35.9867 0 
99.1587 37.4995 0 
98.2834 36.9142 0 
98.6673 37.1642 0 
99.271 38.2318 0 
98.9487 37.6569 0 
97.7472 37.5296 0 
98.4337 37.6489 0 
100.848 1.70906 0 
101.413 1.80541 0 
100.943 0.645922 0 
101.617 38.16 0 
101.153 0.860612 0 
101.396 1.65883 0 
100.653 1.83678 0 
101.826 1.14531 0 
100.021 1.27175 0 
100.257 4.12245 0 
101.05 2.88872 0 
100.895 4.3792 0 
101.29 2.35157 0 
101.754 3.22096 0 
101.746 3.08798 0 
101.161 2.54236 0 
101.038 3.47977 0 
100.225 2.56019 0 
101.463 4.03684 0 
99.7775 2.77221 0 
100.514 3.3051 0 
99.8436 3.50731 0 
100.524 3.6136 0 
100.508 4.89171 0 
101.967 4.81684 0 
100.293 4.87278 0 
99.31 5.46568 0 
101.909 6.80773 0 
99.3471 5.53868 0 
100.533 6.86521 0 
100.972 5.02776 0 
101.433 5.48403 0 
100.132 4.77132 0 
101.752 4.97529 0 
100.883 4.93601 0 
99.9858 4.75191 0 
100.397 6.6651 0 
100.851 5.42839 0 
100.725 6.22711 0 
99.3205 5.08721 0 
99.311 6.60746 0 
100.374 5.35177 0 
99.8673 6.69734 0 
99.8885 5.14784 0 
100.282 5.79079 0 
99.7168 5.3371 0 
101.292 7.09802 0 
100.529 8.0667 0 
100.23 9.25019 0 
100.438 8.77096 0 
100.222 7.26684 0 
101.135 7.77879 0 
99.7696 8.67678 0 
101.528 8.9056 0 
99.8438 7.99799 0 
100.14 7.70521 0 
100.809 8.3566 0 
101.259 8.39348 0 
100.865 8.93955 0 
100.106 8.37507 0 
99.8953 7.44097 0 
100.076 8.10238 0 
100.108 7.91856 0 
100.253 8.83522 0 
101.151 8.73161 0 
101.297 8.21384 0 
101.777 8.76946 0 
99.5514 9.21127 0 
100.611 8.64335 0 
101.654 8.50822 0 
101.231 7.64773 0 
101.027 12.2075 0 
100.342 12.0256 0 
101.906 10.5484 0 
100.552 11.9196 0 
99.4829 10.2103 0 
101.381 11.9515 0 
100.651 11.7667 0 
100.389 11.8438 0 
99.5667 11.1914 0 
99.4446 9.77333 0 
101.455 11.9434 0 
100.643 11.4122 0 
100.578 12.0802 0 
99.6996 10.8908 0 
101.707 10.0147 0 
101.579 10.3669 0 
101.042 10.7571 0 
101.433 11.8923 0 
101.468 11.3287 0 
101.588 12.273 0 
101.71 11.961 0 
99.909 10.6462 0 
101.662 12.3363 0 
101.629 9.76717 0 
101.334 10.9803 0 
101.59 10.5255 0 
99.6055 11.1223 0 
100.078 9.84571 0 
100.781 12.2137 0 
99.3328 11.508 0 
101.396 11.7591 0 
101.275 10.2074 0 
101.051 10.8643 0 
100.074 10.4235 0 
100.91 10.5524 0 
100.566 14.1368 0 
101.065 13.5048 0 
101.745 13.0114 0 
100.108 12.773 0 
101.083 14.3462 0 
101.305 14.7621 0 
99.7879 13.3092 0 
101.371 14.6518 0 
101.531 13.5218 0 
101.006 12.5402 0 
99.7774 12.585 0 
100.018 12.9871 0 
101.362 14.0931 0 
99.6362 14.4939 0 
99.639 12.4991 0 
101.118 13.3454 0 
101.691 13.1482 0 
100.155 14.9791 0 
100.058 12.5393 0 
101.743 14.2971 0 
100.894 13.9365 0 
99.4591 13.554 0 
101.665 14.6657 0 
100.888 12.608 0 
100.861 15.5615 0 
101.2 15.0088 0 
100.741 15.4752 0 
101.569 16.1429 0 
101.601 15.0264 0 
100.911 17.2746 0 
99.7711 16.6419 0 
100.963 15.3603 0 
100.98 14.8474 0 
101.006 15.4599 0 
100.345 16.1821 0 
101.831 15.5756 0 
101.621 15.9435 0 
101.305 16.6633 0 
100.182 17.1895 0 
101.69 15.3176 0 
100.389 17.4055 0 
100.034 16.5452 0 
100.362 16.1039 0 
101.635 15.4006 0 
101.225 16.9435 0 
99.5694 15.5746 0 
100.382 15.5645 0 
101.055 18.897 0 
99.7931 18.7995 0 
100.231 18.4128 0 
99.5799 18.618 0 
101.238 17.569 0 
99.965 17.4203 0 
100.894 18.7541 0 
100.415 19.6559 0 
101.54 17.9937 0 
100.902 21.5595 0 
101.135 20.2922 0 
99.7541 20.7692 0 
99.7179 21.1185 0 
100.094 22.2831 0 
100.916 24.0267 0 
100.804 23.7688 0 
100.769 22.9633 0 
99.5429 25.3995 0 
100.89 26.9993 0 
100.918 26.1894 0 
101.027 27.6604 0 
101.266 27.6186 0 
99.5627 26.3253 0 
99.3408 25.7475 0 
100.781 25.5434 0 
99.9509 25.8027 0 
99.6681 26.4915 0 
99.4571 25.5971 0 
100.2 26.7877 0 
101.833 28.5824 0 
100.329 27.926 0 
101.949 29.3647 0 
100.564 27.8663 0 
99.6005 28.7702 0 
99.9349 30.2492 0 
100.585 29.5572 0 
102.034 29.3802 0 
100.311 29.0432 0 
101.439 29.6953 0 
99.4826 29.5069 0 
101.408 31.7912 0 
100.416 30.9221 0 
100.348 31.0577 0 
101.695 30.6229 0 
101.883 30.3907 0 
100.578 30.6998 0 
100.71 31.7767 0 
101.709 34.7213 0 
101.513 33.6531 0 
100.68 34.3281 0 
101.377 35.3479 0 
100.033 34.743 0 
100.141 35.8902 0 
101.839 35.947 0 
100.678 37.4066 0 
100.881 36.5331 0 
101.067 36.7534 0 
100.362 37.0105 0 
99.9113 38.0173 0 
99.8488 36.3333 0 
100.773 36.1618 0 
101.323 36.188 0 
101.1 37.0159 0 
100.236 39.2674 0 
101.892 38.6836 0 
101.044 36.9865 0 
100.384 37.823 0 
101.093 37.4257 0 
101.458 38.0331 0 
101.239 37.2423 0 
103.369 2.06394 0 
103.508 0.955436 0 
104.05 39.2756 0 
103.951 39.4088 0 
103.455 38.6189 0 
103.606 0.102954 0 
103.296 37.7589 0 
104.005 1.78147 0 
103.741 1.63254 0 
103.765 37.7624 0 
103.603 0.382319 0 
103.562 1.20695 0 
103.679 1.81371 0 
103.601 2.01141 0 
103.029 0.588126 0 
102.404 1.82601 0 
103.042 1.32459 0 
103.965 0.65541 0 
103.934 2.02939 0 
102.528 38.5011 0 
103.514 1.61063 0 
104.41 0.99905 0 
103.217 1.53131 0 
104.197 0.078319 0 
103.522 39.5229 0 
102.765 1.14404 0 
102.871 0.210907 0 
103.055 1.6819 0 
103.766 1.49456 0 
104.241 1.26029 0 
103.177 0.486894 0 
103.492 0.601812 0 
103.467 1.77438 0 
104.306 2.59376 0 
103.407 4.5268 0 
104.207 4.46592 0 
104.067 2.90517 0 
102.539 2.83584 0 
104.3 3.02664 0 
103.234 2.53546 0 
102.705 4.25497 0 
102.697 2.68782 0 
101.806 2.78188 0 
103.233 2.50895 0 
103.228 3.61122 0 
103.186 2.17245 0 
102.085 3.49368 0 
104.168 3.57315 0 
103.061 2.36571 0 
103.353 2.86295 0 
104.441 2.29417 0 
102.198 3.1846 0 
103.398 4.17211 0 
104.117 3.07499 0 
103.67 2.84658 0 
102.149 2.65421 0 
102.116 3.01949 0 
103.682 2.04405 0 
103.632 3.50919 0 
103.73 2.71529 0 
103.826 2.74256 0 
104.221 3.55095 0 
103.401 4.1589 0 
101.967 2.65824 0 
102.805 3.03146 0 
104.226 3.29178 0 
104.161 2.81497 0 
103.553 3.24661 0 
104.109 3.2207 0 
103.313 2.39724 0 
102.413 2.05626 0 
102.54 3.19794 0 
102.998 3.52889 0 
103.881 5.1869 0 
103.713 5.93843 0 
102.308 6.70015 0 
103.567 4.60402 0 
103.36 6.64669 0 
103.859 4.70954 0 
103.159 5.90458 0 
104.041 5.49867 0 
102.492 4.36653 0 
102.374 6.10285 0 
103.972 6.12938 0 
102.901 6.00034 0 
102.047 6.92043 0 
102.098 4.89434 0 
104.052 5.00647 0 
103.503 5.8585 0 
103.255 5.21484 0 
102.313 5.43956 0 
104.177 5.0175 0 
103.239 4.98893 0 
103.696 5.01708 0 
103.953 6.29772 0 
104.239 5.72907 0 
102.734 4.70461 0 
104.148 5.83012 0 
102.029 6.64817 0 
103.544 5.31887 0 
102.001 6.82324 0 
101.937 6.84868 0 
102.019 4.98478 0 
102.438 7.00993 0 
102.133 5.35999 0 
102.644 4.66589 0 
101.967 5.059 0 
102.296 5.71379 0 
101.943 4.87066 0 
104.11 4.68203 0 
102.417 4.98616 0 
104.404 5.72551 0 
103.844 4.82978 0 
102.987 6.04774 0 
104.152 5.98112 0 
102.15 5.15922 0 
103.839 5.80493 0 
102.904 5.79501 0 
103.713 6.70745 0 
103.529 6.09868 0 
103.801 8.57836 0 
101.998 8.1622 0 
103.946 9.1052 0 
102.437 9.40714 0 
103.148 8.32348 0 
103.623 7.72492 0 
104.316 7.38118 0 
104.349 7.81209 0 
103.529 8.97737 0 
103.987 8.56803 0 
102.855 7.77961 0 
102.81 7.03078 0 
104.209 9.19555 0 
103.877 8.81484 0 
102.346 8.71988 0 
104.121 7.50901 0 
103.836 8.79255 0 
101.866 8.76767 0 
102.602 7.52117 0 
103.599 8.78096 0 
104.195 7.81359 0 
102.792 9.15228 0 
104.385 9.43163 0 
[...]
      <PointData Vectors="vector">
        <DataArray type="Float32" Name="Velocity" NumberOfComponents="3" format="ascii">

-123.66 119.529 0 
-198.662 -135.853 0 
-203.902 -114.961 0 
-212.128 -137.615 0 
-198.473 -119.21 0 
-204.416 -133.266 0 
-204.181 -66.9793 0 
-180.914 -28.5738 0 
-150.549 -12.2933 0 
-133.08 15.5663 0 
-128.08 39.0877 0 
-156.005 33.534 0 
-196.048 -12.5262 0 
-144.017 102.827 0 
-178.138 66.3108 0 
-124.887 91.8885 0 
-172.233 -139.877 0 
-191.942 -124.544 0 
-181.458 -105.11 0 
-192.023 -117.211 0 
-170.792 -109.656 0 
-159.306 -106.439 0 
-147.765 -94.6869 0 
-152.303 -122.638 0 
-150.126 -111.045 0 
-155.773 -115.664 0 
-147.579 -139.239 0 
-156.33 -92.2906 0 
-173.872 -104.109 0 
-181.173 -80.0161 0 
-132.196 -98.1548 0 
-149.683 -89.957 0 
-153.827 -87.4535 0 
-165.373 -81.9907 0 
-181.948 -73.3038 0 
-189.354 -79.719 0 
-185.97 -73.6381 0 
-146.094 -65.6623 0 
-179.298 -57.2409 0 
-171.771 -46.1992 0 
-178.314 -63.8877 0 
-149.429 -55.0602 0 
-161.673 -13.5614 0 
-152.513 -56.2286 0 
-184.065 -3.74277 0 
-152.653 15.1782 0 
-124.714 1.54081 0 
-133.54 23.666 0 
-145.934 -14.6608 0 
-144.928 3.28656 0 
-176.197 4.59016 0 
-142.689 31.5987 0 
-108.884 24.6893 0 
-110.829 61.3271 0 
-112.23 24.6192 0 
-160.182 67.7713 0 
-144.55 37.365 0 
-159.371 -7.75002 0 
-121.299 52.665 0 
-134.221 79.0595 0 
-95.7907 76.3905 0 
-140.17 -148.712 0 
-151.789 93.6895 0 
-130.147 106.249 0 
-119.002 88.0068 0 
-113.182 88.4614 0 
-113.175 111.121 0 
-160.574 -144.999 0 
-145.862 112.382 0 
-111.145 101.116 0 
-164.716 -139.883 0 
-148.283 -92.2922 0 
-160.009 -65.084 0 
-142.917 -80.2916 0 
-163.196 -121.98 0 
-170.343 -95.7069 0 
-167.929 -117.075 0 
-132.498 -97.9898 0 
-155.462 -109.344 0 
-141.756 -101.862 0 
-141.919 -64.4709 0 
-157.653 -104.192 0 
-127.176 -79.9025 0 
-127.385 -71.49 0 
-157.861 -102.395 0 
-133.96 -81.2639 0 
-157.105 -113.315 0 
-151.712 -89.8138 0 
-160.787 -81.4676 0 
-147.604 -78.42 0 
-161.5 -71.8573 0 
-150.197 -81.7288 0 
-168.153 -95.8293 0 
-134.554 -91.8558 0 
-171.883 -108.356 0 
-157.645 -71.9596 0 
-166.07 -81.8932 0 
-160.161 -92.9747 0 
-136.525 -82.1178 0 
-148.823 -93.7002 0 
-150.863 -100.688 0 
-133.084 -58.6979 0 
-140.561 -74.8739 0 
-142.758 -90.3796 0 
-111.964 -101.385 0 
-124.424 -75.9677 0 
-149.105 -76.4425 0 
-137.713 -57.6667 0 
-113.286 -76.195 0 
-116.65 -80.6678 0 
-130.932 -69.2158 0 
-181.544 -69.7411 0 
-151.35 -32.83 0 
-146.439 -34.7761 0 
-122.742 -40.8274 0 
-152.734 -39.5023 0 
-152.02 -35.8613 0 
-127.695 -67.3276 0 
-146.943 -72.1449 0 
-131.113 -48.131 0 
-139.754 -38.8685 0 
-141.107 -35.2458 0 
-140.673 -42.5329 0 
-129.619 -49.7668 0 
-146.83 -33.4473 0 
-153.675 -52.034 0 
-109.017 -28.7449 0 
-138.915 -54.345 0 
-168.816 -16.101 0 
-124.907 -20.2894 0 
-136.126 4.12526 0 
-146.922 -41.3482 0 
-135.975 -51.4172 0 
-123.064 8.53383 0 
-138.484 1.4392 0 
-170.814 3.18114 0 
-161.985 -36.7614 0 
-114.941 -30.943 0 
-137.248 -34.3545 0 
-129.282 -22.5614 0 
-141.722 -11.0129 0 
-125.853 -13.3931 0 
-142.225 45.0646 0 
-128.608 -19.0012 0 
-138.281 9.86991 0 
-135.059 8.75818 0 
-124.576 -10.3905 0 
-155.789 5.45626 0 
-134.308 8.96381 0 
-163.096 -25.3253 0 
-103.12 14.1477 0 
-107.259 22.2073 0 
-121.992 52.8698 0 
-105.583 -0.867885 0 
-116.379 50.2725 0 
-128.538 27.6051 0 
-125.375 55.7165 0 
-115.141 43.6994 0 
-141.554 5.65732 0 
-134.05 73.5285 0 
-116.045 13.0925 0 
-122.42 23.4841 0 
-136.105 27.9414 0 
-140.898 29.9001 0 
-133.906 62.0155 0 
-141.012 22.6213 0 
-138.817 73.7481 0 
-118.52 72.3175 0 
-119.651 76.5218 0 
-94.2144 53.6967 0 
-134.472 41.74 0 
-99.9118 65.7895 0 
-138.869 86.8655 0 
-109.862 82.5925 0 
-150.367 -148.645 0 
-153.844 -154.317 0 
-121.412 -115.378 0 
-110.853 76.6046 0 
-104.586 83.6174 0 
-136.175 -168.441 0 
-133.314 -136.934 0 
-80.6979 97.2894 0 
-147.607 -97.9492 0 
-119.453 -138.638 0 
-166.419 -115.288 0 
-118.716 140.211 0 
-142.637 -113.666 0 
-136.085 -137.696 0 
-137.316 -115.589 0 
-124.215 -122.902 0 
-133.261 -155.374 0 
-122.423 -105.532 0 
-123.605 -113.414 0 
-152.805 -139.275 0 
-100.713 -124.667 0 
-138.594 -134.488 0 
-127.793 -139.062 0 
-155.169 -135.762 0 
-152.401 -81.4668 0 
-152.166 -128.364 0 
-100.416 -69.0724 0 
-155.068 -88.0072 0 
-158.827 -91.3892 0 
-127.19 -137.009 0 
-145.035 -118.21 0 
-132.011 -105.642 0 
-105.563 -103.93 0 
-141.26 -78.5778 0 
-146.481 -133.62 0 
-142.685 -144.66 0 
-148.327 -133.431 0 
-126.558 -77.9661 0 
-140.454 -94.6915 0 
-146.977 -78.1952 0 
-134.94 -77.64 0 
-140.17 -125.58 0 
-142.245 -93.0623 0 
-116.088 -74.6809 0 
-150.673 -137.102 0 
-153.944 -137.03 0 
-137.715 -119.12 0 
-146.514 -128.999 0 
-158.084 -96.0298 0 
-135.364 -92.1844 0 
-147.827 -89.7208 0 
-158.807 -102.675 0 
-113.398 -61.1446 0 
-143.606 -97.4102 0 
-132.7 -92.6696 0 
-118.866 -74.1755 0 
-165.587 -67.6503 0 
-153.178 -50.5192 0 
-124.464 -53.3456 0 
-149.849 -75.7293 0 
-156.437 -58.9293 0 
-106.257 -76.0991 0 
-113.407 -53.6994 0 
-115.555 -70.0216 0 
-136.002 -57.3415 0 
-117.943 -48.7026 0 
-174.893 -99.1833 0 
-123.028 -104.725 0 
-113.123 -87.2366 0 
-125.538 -67.7823 0 
-143.561 -80.6331 0 
-166.121 -87.786 0 
-130.741 -87.2717 0 
-139.732 -82.7296 0 
-121.288 -108.294 0 
-109.931 -53.1862 0 
-143.656 -78.416 0 
-159.715 -59.8309 0 
-133.673 -51.6052 0 
-164.259 -69.6532 0 
-144.497 -93.3356 0 
-138.497 -83.5698 0 
-107.087 -95.9245 0 
-137.923 -86.2157 0 
-139.969 -106.65 0 
-152.362 -75.5048 0 
-128.462 -81.511 0 
-131.184 -52.0094 0 
-149.006 -103.655 0 
-127.321 -106.452 0 
-125.108 -74.375 0 
-120.952 -81.9565 0 
-143.143 -78.6111 0 
-106.175 -88.6947 0 
-147.096 -78.8632 0 
-121.643 -42.9176 0 
-139.411 -91.9637 0 
-139.741 -87.1787 0 
-158.992 -74.2616 0 
-112.334 -56.1931 0 
-121.594 -43.3158 0 
-122.764 -46.1739 0 
-132.429 -83.5081 0 
-116.799 -56.7936 0 
-119.506 -54.2537 0 
-145.66 -48.9281 0 
-169.696 -71.5896 0 
-102.399 -61.7394 0 
-176.769 -45.0377 0 
-157.95 -69.4189 0 
-165.008 -50.5298 0 
-148.463 -76.4018 0 
-151.442 -68.8633 0 
-106.433 -80.8497 0 
-163.382 -70.0519 0 
-154.29 -71.7594 0 
-154.407 -35.5032 0 
-159.195 -49.0547 0 
-166.038 -41.1847 0 
-108.665 -58.3871 0 
-140.628 -34.7387 0 
-114.54 -60.404 0 
-124.461 -43.9712 0 
-158.954 -72.1794 0 
-123.195 -39.8919 0 
-117.945 -29.789 0 
-159.32 -61.5811 0 
-113.99 -27.7814 0 
-144.602 -55.0135 0 
-126.372 -49.2713 0 
-117.429 -49.9053 0 
-163.422 -36.9984 0 
-105.024 -62.3662 0 
-160.744 -77.2044 0 
-155.168 -38.6098 0 
-114.876 -61.9591 0 
-122.583 -58.3017 0 
-122.659 -47.4802 0 
-153.181 -60.7634 0 
-111.501 -46.7991 0 
-137.859 -26.8115 0 
-174.692 -45.4182 0 
-149.835 -38.3019 0 
-134.588 -42.1301 0 
-132.988 6.59718 0 
-141.601 -35.5532 0 
-113.572 -19.7707 0 
-116.495 -41.4897 0 
-146.201 -48.375 0 
-153.073 -33.2386 0 
-120.626 -32.8051 0 
-153.125 -57.0757 0 
-133.733 -53.192 0 
-129.851 -45.3746 0 
-144.79 -67.1483 0 
-154.548 -46.8357 0 
-157.086 -70.7661 0 
-107.017 -18.3983 0 
-142.341 -20.3899 0 
-118.779 0.796043 0 
-130.863 -26.3206 0 
-133.238 -56.5026 0 
-134.876 -81.7819 0 
-153.002 -44.6611 0 
-139.381 -48.7503 0 
-177.132 -39.2011 0 
-131.959 -43.2838 0 
-127.113 -20.567 0 
-136.902 -22.7028 0 
-113.784 -49.5499 0 
-134.511 -6.73452 0 
-132.599 -10.4577 0 
-138.735 -33.0589 0 
-139.415 3.98681 0 
-153.713 -15.7152 0 
-128.946 -62.8546 0 
-121.195 -25.3807 0 
-129.768 -17.7664 0 
-102.458 -8.84702 0 
-161.231 -68.0952 0 
-137.251 22.2446 0 
-120.3 -26.6917 0 
-144.496 -3.51375 0 
-126.279 -40.7887 0 
-153.74 -28.039 0 
-167.134 15.6624 0 
-124.612 -67.3621 0 
-104.997 -1.1279 0 
-148.44 -10.1939 0 
-143.497 -21.4914 0 
-137.864 -24.764 0 
-114.705 -34.5561 0 
-147.383 -40.4337 0 
-150.738 -33.465 0 
-143.422 10.1773 0 
-133.29 -10.1105 0 
-154.186 17.4895 0 
-115.375 -4.25147 0 
-175.574 -18.6375 0 
-163.794 26.5621 0 
-144.673 -28.0834 0 
-134.606 33.801 0 
-171.211 -22.0183 0 
-87.3847 -3.95953 0 
-120.426 -26.1766 0 
-133.103 19.123 0 
-133.628 11.4709 0 
-101.353 17.722 0 
-131.584 21.2283 0 
-114.995 30.3338 0 
-88.2603 2.75582 0 
-102.154 21.0449 0 
-109.472 63.0097 0 
-109.733 -24.8047 0 
-114.136 74.965 0 
-156.088 46.0599 0 
-123.812 40.4653 0 
-114.088 73.7811 0 
-140.365 20.6386 0 
-136.076 41.255 0 
-123.03 39.1664 0 
-124.828 53.7421 0 
-111.868 62.7958 0 
-142.163 55.6307 0 
-100.896 35.4149 0 
-137.959 47.0514 0 
-147.217 64.0132 0 
-75.2707 63.4244 0 
-95.0979 35.8003 0 
-111.726 49.3651 0 
-111.015 79.1173 0 
-108.415 38.2139 0 
-138.983 25.9096 0 
-130.765 74.333 0 
-95.6716 43.7755 0 
-139.405 57.6593 0 
-111.177 73.8968 0 
-87.829 76.5366 0 
-122.18 -151.551 0 
-88.6687 80.7071 0 
-101.316 95.6183 0 
-80.8482 76.833 0 
-188.237 -95.3338 0 
-112.873 -133.956 0 
-125.013 -139.406 0 
-121.665 -129.063 0 
-104.845 75.7517 0 
-117.403 -150.834 0 
-129.004 117.724 0 
-127.805 -143.851 0 
-132.009 123.755 0 
-107.147 -149.373 0 
-117.929 105.194 0 
-93.2709 91.2686 0 
-100.845 -156.047 0 
-141.975 -155.415 0 
-109.008 -130.026 0 
-98.6179 136.047 0 
-112.761 -130.849 0 
-173.154 -173.112 0 
-148.213 -111.961 0 
-87.2599 137.339 0 
-121.143 -164.814 0 
-127.55 -136.602 0 
-178.105 -74.1677 0 
-188.36 -84.847 0 
-185.516 -114.016 0 
-163.045 -93.3667 0 
-164.381 -91.1348 0 
-188.133 -144.793 0 
-194.534 -90.2544 0 
-192.431 -95.764 0 
-157.411 -111.422 0 
-170.504 -84.8997 0 
-176.015 -66.4554 0 
-132.236 -158.126 0 
-110.492 -136.645 0 
-133.804 -154.438 0 
-122.373 -157.622 0 
-102.1 -92.3283 0 
-116.477 -73.5954 0 
-94.7899 -161.081 0 
-114.397 -140.751 0 
-136.983 -126.307 0 
-82.9655 -123.753 0 
-103.787 -130.434 0 
-107.447 -123.556 0 
-130.553 -143.626 0 
-125.93 -146.817 0 
-136.628 -132.637 0 
-133.568 -82.1605 0 
-145.615 -119.696 0 
-146.39 -112.014 0 
-189.178 -147.686 0 
-124.303 -132.814 0 
-132.837 -145.825 0 
-129.814 -139.094 0 
-79.1782 118.934 0 
-127.864 -118.048 0 
-143.658 -157.842 0 
-134.992 -154.495 0 
-126.426 -127.268 0 
-150.272 -145.161 0 
-131.611 -98.5507 0 
-157.36 -67.5267 0 
-133.459 -101.537 0 
-160.822 -108.621 0 
-196.492 -76.142 0 
-139.465 -95.0585 0 
-96.947 -83.8767 0 
-128.456 -140.415 0 
-134.229 -136.176 0 
-123 -95.0808 0 
-111.928 -84.4464 0 
-117.795 -137.212 0 
-138.717 -113.108 0 
-119.29 -99.3855 0 
-99.1771 -96.5335 0 
-117.535 -122.463 0 
-130.025 -108.35 0 
-112.731 -117.324 0 
-108.717 -83.2731 0 
-87.5233 -125.331 0 
-160.193 -105.294 0 
-119.577 -122.829 0 
-121.627 -123.067 0 
-121.604 -127.713 0 
-110.612 -95.7997 0 
-126.718 -114.551 0 
-111.974 -118.568 0 
-149.249 -98.8982 0 
-128.447 -125.198 0 
-152.534 -95.6852 0 
-116.431 -66.0029 0 
-117.295 -86.895 0 
-116.627 -131.699 0 
-112.732 -136.361 0 
-119.15 -123.617 0 
-118.389 -103.187 0 
-120.867 -85.3486 0 
-105.26 -73.6637 0 
-130.744 -136.077 0 
-105.88 -110.469 0 
-123.254 -118.993 0 
-131.632 -121.506 0 
-98.1684 -128.785 0 
-97.4474 -68.3125 0 
-92.2131 -95.1912 0 
-124.291 -117.705 0 
-108.247 -120.139 0 
-126.711 -105.607 0 
-119.771 -90.4271 0 
-123.752 -119.447 0 
-103.791 -134.716 0 
-165.566 -67.7431 0 
-153.619 -60.7651 0 
-137.992 -64.6442 0 
-135.066 -124.063 0 
-86.92 -56.9625 0 
-143.178 -98.1776 0 
-97.5102 -88.7703 0 
-84.3585 -79.27 0 
-147.925 -77.7174 0 
-138.93 -96.6168 0 
-141.72 -78.2143 0 
-147.187 -97.9706 0 
-89.3874 -101.743 0 
-137.212 -90.82 0 
-116.312 -77.8152 0 
-93.8293 -66.5188 0 
-138.034 -96.1645 0 
-120.928 -101.406 0 
-131.712 -110.477 0 
-90.2472 -66.7746 0 
-149.389 -79.1153 0 
-137.754 -139.931 0 
-127 -98.8492 0 
-111.877 -72.3487 0 
-89.8659 -92.8158 0 
-135.192 -104.53 0 
-148.021 -79.3348 0 
-133.991 -102.649 0 
-130.888 -82.5326 0 
-177.394 -78.9803 0 
-115.161 -74.0215 0 
-96.3247 -87.2012 0 
-98.4157 -74.6156 0 
-117.37 -87.0252 0 
-118.358 -58.9666 0 
-98.786 -96.881 0 
-132.618 -70 0 
-139.948 -123.262 0 
-140.843 -98.3445 0 
-153.105 -84.1628 0 
-103.536 -100.249 0 
-122.94 -114.67 0 
-125.997 -85.1895 0 
-108.235 -99.1298 0 
-126.407 -90.1458 0 
-125.241 -69.1273 0 
-124.469 -89.9351 0 
-130.723 -61.8389 0 
-117.153 -100.399 0 
-130.724 -63.1882 0 
-108.096 -43.7527 0 
-120.192 -110.296 0 
-82.3945 -90.3383 0 
-138.108 -111.363 0 
-91.1233 -58.7715 0 
-112.687 -95.1873 0 
-95.9346 -57.7789 0 
-116.186 -91.9955 0 
-147.351 -74.2335 0 
-87.3454 -80.4305 0 
-114.693 -78.9609 0 
-127.119 -87.0111 0 
-115.12 -74.8236 0 
-135.261 -68.1344 0 
-144.405 -63.8908 0 
-111.091 -77.3885 0 
-141.064 -111.109 0 
-155.613 -92.7975 0 
-157.893 -46.6277 0 
-127.894 -78.7331 0 
-132.698 -78.6998 0 
-129.444 -87.3277 0 
-110.506 -56.9197 0 
-121.185 -106.185 0 
-101.265 -68.3787 0 
-111.523 -74.0673 0 
-110.414 -73.1038 0 
-135.892 -110.893 0 
-99.3871 -47.3937 0 
-162.088 -63.676 0 
-118.678 -91.4949 0 
-114.318 -82.7809 0 
-120.868 -77.8255 0 
-149.083 -51.4181 0 
-114.933 -73.0518 0 
-129.698 -83.0017 0 
-144.688 -89.4018 0 
-145.535 -93.9086 0 
-155.521 -53.5784 0 
-125.727 -59.1655 0 
-159.641 3.83893 0 
-119.485 -59.0931 0 
-78.9373 -41.6961 0 
-127.594 -57.5004 0 
-102.92 -69.7393 0 
-82.9554 -71.1365 0 
-140.226 -42.6514 0 
-93.8676 -56.7724 0 
-111.64 -58.4789 0 
-149.293 -67.4758 0 
-88.5757 -80.7411 0 
-95.2466 -64.0027 0 
-119.156 -63.371 0 
-157.446 -43.9164 0 
-104.356 -80.7644 0 
-162.791 -39.4426 0 
-117.187 -66.9548 0 
-107.236 -65.2471 0 
-130.152 -76.9495 0 
-106.36 -60.2464 0 
-149.696 -61.826 0 
-139.703 -65.2824 0 
-131.197 -45.7203 0 
-102.143 -69.8036 0 
-113.668 -51.5534 0 
-108.593 -75.944 0 
-90.3206 -73.4019 0 
-103.058 -63.2227 0 
-144.253 -30.8907 0 
-101.408 -48.9871 0 
-102.079 -84.3788 0 
-96.7505 -69.4039 0 
-156.374 -37.2045 0 
-151.47 -34.4441 0 
-105.612 -39.8779 0 
-120.89 -47.827 0 
-111.116 -47.0188 0 
-96.7042 -70.7585 0 
-102.016 -71.8112 0 
-145.742 -59.5584 0 
-104.896 -40.3259 0 
-89.6241 -87.9788 0 
-111.586 -75.7 0 
-96.357 -77.5368 0 
-79.9373 -43.6788 0 
-97.3616 -48.4958 0 
-136.74 -80.0186 0 
-108.428 -61.5897 0 
-136.49 -78.5097 0 
-112.898 -61.0599 0 
-153.131 -35.3299 0 
-125.842 -78.2558 0 
-124.536 -29.8114 0 
-113.507 -59.948 0 
-124.529 -34.1644 0 
-135.5 -29.4773 0 
-135.477 -43.6541 0 
-106.85 -62.5473 0 
-97.3071 -49.8686 0 
-168.367 -45.7943 0 
-119.752 -32.8713 0 
-170.158 -60.2739 0 
-110.306 -47.6434 0 
-130.474 -51.5846 0 
-126.451 -44.0072 0 
-106.796 -9.90789 0 
-137.697 -37.6185 0 
-154.355 -69.7009 0 
-145.95 -49.9836 0 
-88.025 -32.4236 0 
-107.337 -34.219 0 
-120.687 -40.8206 0 
-112.353 24.3688 0 
-119.013 -48.3951 0 
-109.99 -39.744 0 
-153.776 -66.6193 0 
-126.118 -23.1639 0 
-126.669 10.1219 0 
-148.209 -53.4898 0 
-146.878 -55.246 0 
-137.367 -43.623 0 
-149.099 -35.7181 0 
-137.757 -51.0276 0 
-85.0258 -29.7372 0 
-107.037 -61.2303 0 
-128.935 11.4696 0 
-127.28 -55.6686 0 
-96.8045 -28.2497 0 
-171.049 -39.6715 0 
-108.666 -27.1306 0 
-127.864 -48.1225 0 
-122.419 -32.366 0 
-124.879 -56.104 0 
-138.934 -56.8336 0 
-164.436 -9.21223 0 
-156.053 -20.8557 0 
-175.804 -18.1993 0 
-94.6247 14.9388 0 
-115.334 -7.41729 0 
-138.032 -5.72447 0 
-125.286 -16.6508 0 
-121.46 10.9342 0 
-151.497 6.77411 0 
-112.956 -0.219995 0 
-114.092 -4.57088 0 
-103.968 -31.8493 0 
-130.544 -0.262722 0 
-112.453 14.8736 0 
-94.5847 3.52458 0 
-120.254 8.05232 0 
-150.203 -17.4809 0 
-117.685 -23.8342 0 
-128.014 -38.2987 0 
-126.175 -10.7565 0 
-116.229 0.287454 0 
-134.211 -19.5497 0 
-145.268 13.261 0 
-133.145 -17.5104 0 
-116.341 -41.3294 0 
-118.099 18.494 0 
-140.874 -27.8897 0 
-128.77 -6.13577 0 
-102.621 -23.496 0 
-145.555 -18.1044 0 
-116.414 4.11984 0 
-122.588 -52.9643 0 
-106.132 -7.29564 0 
-127.817 -56.3111 0 
-166.332 -5.40208 0 
-135.827 22.3576 0 
-125.493 -7.54129 0 
-130.047 -1.40448 0 
-115.631 -5.78348 0 
-106.678 -14.5821 0 
-123.023 -36.8267 0 
-146.401 6.47898 0 
-149.33 -12.3252 0 
-135.695 -25.5607 0 
-133.966 15.3322 0 
-115.009 -7.41985 0 
-108.812 4.82839 0 
-172.319 -21.4419 0 
-116.331 -5.07995 0 
-115.964 -11.4159 0 
-108.609 4.86967 0 
-107.723 19.6295 0 
-124.893 -9.35758 0 
-121.888 -15.9161 0 
-155.4 10.8082 0 
-117.96 -16.3749 0 
-136.29 8.3995 0 
-142.872 19.0454 0 
-101.467 -18.0497 0 
-113.843 6.659 0 
-117.205 -48.7914 0 
-97.2611 5.99297 0 
-124.578 7.65842 0 
-121.112 8.32985 0 
-114.017 -51.2282 0 
-113.565 -0.161759 0 
-89.8884 -13.5931 0 
-111.792 4.53061 0 
-105.407 -24.9088 0 
-111.578 13.7244 0 
-103.134 -24.9667 0 
-158.676 -9.37773 0 
-107.405 -11.3186 0 
-104.336 -24.5612 0 
-93.5395 -13.1221 0 
-118.066 2.85683 0 
-158.06 -5.12328 0 
-105.667 24.0976 0 
-157.724 13.7877 0 
-134.518 -0.68747 0 
-110.276 -2.20026 0 
-113.723 -7.76799 0 
-95.2723 -30.9267 0 
-137.755 10.457 0 
-103.91 -29.8254 0 
-113.344 24.8845 0 
-161.459 -29.0645 0 
-123.725 31.8146 0 
-116.179 -52.8289 0 
-102.097 -16.1463 0 
-126.411 31.4881 0 
-86.9807 -13.3982 0 
-112.687 6.78732 0 
-121.095 21.0046 0 
-115.516 -32.0324 0 
-121.688 8.99095 0 
-108.344 27.3985 0 
-103.998 -2.97634 0 
-141.865 36.0327 0 
-88.0777 -26.061 0 
-105.824 7.19386 0 
-129.777 9.05248 0 
-106.882 -15.9415 0 
-139.969 0.279959 0 
-120.866 16.6317 0 
-81.1065 23.3114 0 
-110.96 10.7963 0 
-117.479 3.71099 0 
-127.876 -36.9252 0 
-87.3329 30.1673 0 
-158.219 1.22191 0 
-151.752 -13.7763 0 
-121.016 15.9782 0 
-128.54 -16.9298 0 
-119.066 -6.98354 0 
-107.545 2.47259 0 
-109.753 32.0826 0 
-117.832 37.2164 0 
-83.8389 44.6461 0 
-69.556 19.5956 0 
-132.262 1.65158 0 
-112.87 9.09819 0 
-115.748 22.9267 0 
-82.3836 29.9231 0 
-97.1329 6.08433 0 
-100.973 24.3396 0 
-66.672 51.1278 0 
-103.839 36.0133 0 
-134.794 -134.039 0 
-83.9179 83.5936 0 
-104.025 36.9111 0 
-95.1489 74.4597 0 
-74.0639 44.4238 0 
-103.002 62.8576 0 
-72.8363 46.4866 0 
-71.5082 33.392 0 
-90.0332 53.7967 0 
-98.5882 74.4761 0 
-88.0479 63.544 0 
-173.973 -142.61 0 
-160.518 -119.555 0 
-176.744 -151.087 0 
-70.9597 90.7564 0 
-98.2419 -163.899 0 
-74.0597 63.7104 0 
-74.1864 73.6296 0 
-122.285 97.9014 0 
-102.13 -163.296 0 
-107.702 119.229 0 
-173.553 -114.039 0 
-153.564 -118.62 0 
-169.949 -134.833 0 
-173.95 -101.802 0 
-169.783 -137.017 0 
-164.123 -131.031 0 
-129.568 -103.39 0 
-176.82 -128.968 0 
-188.414 -91.5281 0 
-177.48 -99.1693 0 
-180.608 -119.603 0 
-162.253 -153.658 0 
-161.998 -104.707 0 
-105.823 -133.191 0 
-131.295 -149.658 0 
-77.7808 -120.364 0 
-162.747 -158.101 0 
-139.854 -172.998 0 
-78.3206 -111.223 0 
-102.597 -139.19 0 
-84.5819 -146.139 0 
-72.6628 97.991 0 
-181.909 -91.9978 0 
-149.396 -95.6043 0 
-166.844 -94.0801 0 
-162.974 -93.8175 0 
-161.102 -78.5909 0 
-190.75 -97.8733 0 
-174.992 -95.4449 0 
-183.329 -91.0337 0 
-185.966 -106.605 0 
-179.649 -89.0107 0 
-186.151 -145.157 0 
-170.295 -90.5197 0 
-153.251 -79.8688 0 
-188.618 -90.1766 0 
-84.8735 -104.129 0 
-96.6664 103.886 0 
-139.036 -151.396 0 
-123.92 -132.257 0 
-106.584 -97.8168 0 
-91.1363 96.861 0 
-147.347 -119.978 0 
-142.882 -113.096 0 
-143.789 -101.55 0 
-144.041 -102.517 0 
-137.178 -98.5677 0 
-134.118 -103.486 0 
-155.057 -99.1076 0 
-171.454 -114.218 0 
-131.914 -126.801 0 
-140.373 -111.502 0 
-138.724 -100.172 0 
-147.278 -101.314 0 
-163.587 -104.279 0 
-137.041 -100.126 0 
-147.342 -95.3629 0 
-146.872 -97.2007 0 
-142.296 -88.802 0 
-129.566 -130 0 
-155.458 -107.927 0 
-176.768 -96.6587 0 
-159.057 -80.0324 0 
-179.601 -117.09 0 
-130.459 -100.78 0 
-160.017 -87.5351 0 
-158.468 -122.915 0 
-124.466 -97.2259 0 
-127.886 -134.446 0 
-147.561 -104.653 0 
-128.734 -90.1751 0 
-166.776 -94.3263 0 
-150.414 -111.811 0 
-178.03 -120.897 0 
-162.97 -73.0024 0 
-139.521 -112.936 0 
-75.0961 -129.673 0 
-132.849 -108.724 0 
-137.034 -120.095 0 
-80.3286 -135.182 0 
-118.041 -110.828 0 
-112.475 -142.78 0 
-132.483 -126.526 0 
-149.151 -134.872 0 
-95.2751 -147.088 0 
-130.465 -98.758 0 
-110.632 -142.046 0 
-97.714 -86.2531 0 
-118.745 -89.941 0 
-138.889 -110.02 0 
-77.9814 -129.147 0 
-141.219 -148.141 0 
-112.897 -115.276 0 
-136.65 -125.309 0 
-122.291 -113.503 0 
-121.371 -127.334 0 
-122.661 -138.711 0 
-111.502 -106.236 0 
-134.059 -128.973 0 
-115.099 -107.874 0 
-125.932 -112.641 0 
-128.35 -136.399 0 
-130.941 -145.732 0 
-122.093 -89.8824 0 
-170.63 -125.053 0 