<VTKFile type="UnstructuredGrid" version="0.1" byte_order="BigEndian">
  <UnstructuredGrid>
        <Piece NumberOfPoints="8000" NumberOfCells="0" Time= "0.095">      <Points>
        <DataArray name="Position" type="Float32"  NumberOfComponents= "3"  format="ascii">

111.898 10.799 0 
112.165 10.7963 0 
111.999 10.8964 0 
111.702 11.3561 0 
111.745 11.1204 0 
111.442 12.08 0 
112.085 10.8946 0 
111.73 11.1502 0 
111.735 11.1555 0 
112.015 11.01 0 
111.945 10.9537 0 
111.701 12.0015 0 
112.129 11.256 0 
112.152 11.26 0 
112.15 11.2048 0 
111.942 10.8114 0 
111.855 11.0073 0 
112.108 11.1301 0 
111.678 11.2984 0 
111.486 12.0846 0 
111.863 11.0718 0 
110.842 12.2178 0 
112.184 10.4994 0 
111.102 11.7467 0 
112.137 14.6409 0 
111.827 13.8977 0 
111.965 14.6067 0 
111.968 13.687 0 
111.815 13.8957 0 
112.034 13.2071 0 
111.856 13.6901 0 
111.977 13.2465 0 
110.996 16.0489 0 
111.723 16.6559 0 
111.187 17.2166 0 
112.004 15.359 0 
112.026 15.589 0 
112.166 16.5073 0 
112.022 16.4849 0 
111.813 15.3168 0 
111.572 16.4048 0 
111.249 16.1232 0 
111.997 15.4308 0 
111.867 15.4694 0 
112.02 15.1621 0 
111.916 15.5717 0 
112.026 15.2538 0 
110.517 17.188 0 
111.394 16.3762 0 
111.909 15.4672 0 
111.95 15.2271 0 
112.171 16.4406 0 
110.543 17.3922 0 
112.028 15.2636 0 
111.793 16.5536 0 
110.558 17.2378 0 
111.838 15.203 0 
111.233 16.2157 0 
111.844 15.4146 0 
111.685 15.834 0 
111.493 16.0917 0 
110.617 17.0024 0 
110.57 15.4514 0 
111.727 17.0469 0 
111.028 20.2062 0 
111.169 20.399 0 
111.173 19.3213 0 
110.795 19.0585 0 
111.339 20.0989 0 
110.588 20.1035 0 
110.551 19.971 0 
111.388 20.1515 0 
111.26 19.097 0 
112.037 18.7257 0 
110.775 19.0497 0 
111.433 20.1039 0 
110.893 19.9051 0 
110.893 19.8876 0 
111.316 18.3982 0 
110.645 19.5879 0 
111.22 19.2644 0 
112.116 18.7276 0 
112.07 19.9507 0 
110.617 20.5648 0 
110.167 20.3462 0 
110.758 20.8114 0 
110.592 20.658 0 
110.952 20.4861 0 
110.143 20.2235 0 
110.635 20.8489 0 
111.3 21.0538 0 
111.002 20.5391 0 
110.623 21.0789 0 
110.165 20.313 0 
110.822 20.8736 0 
110.832 21.0657 0 
110.917 21.024 0 
110.732 21.0425 0 
111.047 20.4903 0 
111.178 20.5363 0 
110.696 20.9961 0 
112.033 22.6052 0 
111.303 20.9925 0 
110.724 20.8199 0 
112.238 21.3513 0 
110.349 23.6407 0 
111.603 22.9564 0 
113.121 11.028 0 
114.407 11.7633 0 
113.059 11.2415 0 
114.252 11.4439 0 
114.394 10.9568 0 
114.113 10.9455 0 
113.135 11.3579 0 
112.943 11.4831 0 
112.359 10.7708 0 
114.543 10.7062 0 
112.334 10.8635 0 
113.313 11.0324 0 
114.258 10.9208 0 
113.855 10.95 0 
114.224 11.5172 0 
114.101 10.9595 0 
113.915 11.6311 0 
113.551 11.0673 0 
112.216 11.1398 0 
113.38 11.1231 0 
112.957 11.1448 0 
113.031 11.1521 0 
113.756 10.9655 0 
113.169 10.9303 0 
112.26 10.8193 0 
113.04 11.371 0 
113.571 10.9866 0 
113.46 10.9186 0 
113.217 11.3161 0 
113.822 10.5269 0 
113.413 11.4134 0 
112.667 12.2349 0 
113.047 13.2304 0 
114.529 12.5091 0 
112.955 13.2763 0 
112.603 14.4179 0 
113.009 13.2421 0 
114.404 12.4625 0 
114.256 13.2421 0 
113.723 14.507 0 
113.853 13.9023 0 
114.353 13.6979 0 
113.147 14.0101 0 
114.37 12.4134 0 
114.275 13.7547 0 
114.526 13.7811 0 
113.068 12.8043 0 
113.97 13.1723 0 
114.424 13.2673 0 
113.996 14.3165 0 
113.776 12.9342 0 
113.394 14.4467 0 
112.593 14.2144 0 
113.44 14.3389 0 
113.962 12.8368 0 
114.592 13.364 0 
113.953 13.2449 0 
114.513 13.223 0 
113.137 14.6038 0 
114.258 14.1743 0 
113.186 14.2197 0 
114.201 13.1719 0 
113.185 14.212 0 
113.709 14.5069 0 
114.612 12.8581 0 
113.861 12.516 0 
113.552 12.7005 0 
113.092 13.1993 0 
113.52 14.1484 0 
113.194 13.89 0 
113.996 14.0235 0 
112.967 13.3059 0 
113.031 13.2795 0 
112.998 13.6092 0 
114.691 13.9585 0 
113.507 14.0945 0 
114.634 12.9043 0 
113.255 13.7902 0 
114.233 12.619 0 
113.519 14.1867 0 
114.539 12.5345 0 
113.974 14.2222 0 
113.477 14.3148 0 
114.687 13.7297 0 
114.249 12.6514 0 
114.739 13.4878 0 
113.385 14.7307 0 
114.342 13.3306 0 
113.234 12.8827 0 
113.784 12.6817 0 
113.174 13.1385 0 
113.055 12.9315 0 
114.094 13.9804 0 
114.528 12.5057 0 
113.617 12.6722 0 
114.751 13.3931 0 
112.999 13.6184 0 
114.629 12.6331 0 
113.207 14.6275 0 
113.391 14.7157 0 
113.072 13.4965 0 
113.659 14.603 0 
113.58 14.7313 0 
113.191 14.671 0 
114.202 13.4545 0 
113.685 14.4829 0 
113.681 12.9297 0 
113.039 12.4808 0 
112.43 14.5937 0 
113.512 14.1738 0 
112.97 13.2425 0 
113.369 14.5861 0 
113.515 14.2348 0 
114.493 13.2216 0 
113.094 14.3252 0 
114.462 13.0271 0 
113.834 13.1919 0 
114.4 12.8325 0 
112.916 12.8343 0 
112.942 14.0757 0 
113.924 13.3066 0 
114.046 13.2149 0 
114.329 12.3061 0 
114.522 13.9032 0 
114.111 14.2864 0 
113.892 12.4745 0 
113.307 13.1218 0 
114.363 13.1812 0 
112.991 13.3069 0 
113.721 14.5069 0 
114.151 14.3097 0 
114.546 13.0035 0 
113.817 12.6766 0 
112.964 13.038 0 
114.045 13.1988 0 
112.245 14.6741 0 
113.452 14.3905 0 
114.584 12.5889 0 
113.218 14.2511 0 
114.284 13.645 0 
114.626 12.8322 0 
113.17 14.2847 0 
114.06 14.3022 0 
114.071 13.1918 0 
112.632 13.7629 0 
113.519 13.8299 0 
114.094 14.3275 0 
114.574 13.0144 0 
112.795 13.3976 0 
113.522 13.4596 0 
114.002 12.9331 0 
114.355 12.4381 0 
114.641 13.4522 0 
114.121 12.7834 0 
113.491 13.9733 0 
112.949 13.8997 0 
114.221 14.2175 0 
113.907 13.0373 0 
114.651 13.5986 0 
113.916 13.4945 0 
114.104 12.424 0 
114.256 13.8357 0 
113.258 14.4218 0 
114.504 12.5259 0 
113.009 14.2031 0 
112.104 15.4381 0 
114.543 17.1637 0 
112.944 16.7713 0 
114.268 16.7893 0 
113.586 14.7695 0 
113.263 15.8086 0 
113.118 16.4974 0 
114.541 16.7814 0 
114.303 16.0727 0 
112.32 16.5571 0 
113.322 16.8968 0 
113.649 15.7122 0 
112.706 16.8271 0 
114.448 16.3581 0 
114.452 15.8854 0 
114.302 16.3499 0 
112.561 15.6004 0 
113.39 16.0047 0 
113.67 15.9155 0 
113.745 16.7362 0 
112.91 15.7434 0 
114.777 17.358 0 
113.588 14.7646 0 
113.251 16.046 0 
113.896 16.9296 0 
113.849 16.5006 0 
113.058 17.2738 0 
113.134 14.8273 0 
112.712 17.1277 0 
114.22 15.7406 0 
112.396 15.1011 0 
113.645 16.6866 0 
112.302 16.2163 0 
112.717 16.0454 0 
114.619 15.7958 0 
113.354 16.339 0 
113.266 16.8592 0 
114.264 16.4525 0 
113.858 15.7053 0 
114.241 16.957 0 
114.305 17.4419 0 
112.701 16.5438 0 
113.823 15.6683 0 
114.27 16.6729 0 
114.404 15.8522 0 
113.978 16.5298 0 
112.325 15.5594 0 
114.379 15.564 0 
114.145 15.5962 0 
113.226 16.4878 0 
114.359 15.9203 0 
113.308 15.2728 0 
113.484 17.101 0 
114.24 16.5042 0 
113.699 16.5641 0 
113.44 15.5467 0 
114.331 15.243 0 
114.74 16.4474 0 
114.727 16.3293 0 
112.406 16.4648 0 
112.554 16.312 0 
112.916 15.0466 0 
114.235 16.9454 0 
113.519 15.9142 0 
112.632 16.5935 0 
113.715 15.1705 0 
112.875 15.1277 0 
112.757 16.6222 0 
113.825 15.8909 0 
114.057 16.0257 0 
113.383 15.1511 0 
113.625 16.54 0 
112.496 16.6013 0 
113.465 15.9084 0 
112.849 17.01 0 
112.729 15.4937 0 
114.584 17.3673 0 
113.696 15.4751 0 
114.646 17.1383 0 
113.766 16.2315 0 
113.485 14.8104 0 
113.252 16.1529 0 
113.39 16.3673 0 
113.675 15.3342 0 
114.724 16.4731 0 
113.049 14.8946 0 
113.689 15.9804 0 
112.356 16.5915 0 
113.373 16.436 0 
113.245 15.6197 0 
114.514 15.873 0 
113.587 15.768 0 
112.422 15.8525 0 
113.329 16.0176 0 
112.623 16.4064 0 
114.341 16.4808 0 
112.691 16.4776 0 
114.005 16.5278 0 
112.566 16.1555 0 
114.651 16.507 0 
113.361 16.6996 0 
113.273 15.8657 0 
112.974 16.9515 0 
114.476 17.4243 0 
112.265 16.3315 0 
112.296 15.7213 0 
114.453 15.7938 0 
112.858 16.3293 0 
112.7 16.6826 0 
112.972 15.0073 0 
113.986 16.0727 0 
114.134 16.4522 0 
113.635 16.2321 0 
114.071 16.8529 0 
113.386 16.0475 0 
112.412 16.8206 0 
113.809 15.461 0 
114.308 16.3579 0 
113.316 16.1499 0 
113.515 14.7989 0 
112.415 16.3495 0 
114.314 16.5692 0 
113.622 16.1124 0 
113.681 16.3133 0 
112.59 15.5147 0 
113.974 16.9583 0 
114.319 17.0237 0 
113.544 15.6929 0 
114.268 16.604 0 
114.342 15.7905 0 
112.811 15.8638 0 
112.931 17.1851 0 
113.324 15.9307 0 
114.328 15.5175 0 
113.284 16.3004 0 
113.986 15.6515 0 
112.201 15.7058 0 
113.926 15.4326 0 
113.934 15.4207 0 
113.895 16.43 0 
114.026 15.5444 0 
112.708 16.6847 0 
112.861 16.5636 0 
114.271 16.2985 0 
112.458 16.4344 0 
113.717 15.0524 0 
113.517 14.8479 0 
113.208 16.6306 0 
113.256 16.1801 0 
113.834 16.5153 0 
114.578 16.5971 0 
114.451 16.3245 0 
113.14 16 0 
114.272 16.4043 0 
113.324 16.7055 0 
113.063 16.4128 0 
113.305 16.5061 0 
112.546 16.2433 0 
113.899 16.4607 0 
114.22 16.3658 0 
113.609 15.855 0 
113.497 16.0758 0 
113.38 16.1331 0 
113.414 16.0972 0 
114.4 15.4201 0 
113.956 16.1436 0 
113.611 15.8377 0 
114.371 16.7331 0 
114.799 16.4205 0 
112.258 15.7637 0 
112.689 17.4501 0 
112.938 17.2043 0 
113.397 16.8435 0 
114.453 16.0042 0 
113.609 15.7703 0 
113.876 16.7338 0 
114.415 16.952 0 
113.339 16.6033 0 
113.228 16.7033 0 
113.556 16.4391 0 
113.81 15.9572 0 
112.567 16.2618 0 
114.577 16.3875 0 
112.906 16.983 0 
113.55 16.4585 0 
113.468 16.9565 0 
113.682 15.155 0 
112.629 15.4852 0 
114.199 16.2457 0 
113.299 16.2139 0 
113.32 16.4397 0 
114.314 16.4789 0 
113.82 16.4408 0 
114.693 16.4193 0 
113.877 16.0181 0 
112.565 15.928 0 
113.21 16.8695 0 
112.377 16.4497 0 
113.379 16.569 0 
113.287 16.5052 0 
114.075 16.4592 0 
112.963 15.2583 0 
113.195 17.2684 0 
113.179 16.765 0 
114.252 15.6525 0 
113.546 15.9138 0 
113.553 16.3898 0 
113.728 15.4128 0 
112.775 17.0591 0 
112.293 16.4632 0 
112.567 15.5206 0 
112.662 16.5104 0 
114.11 15.9163 0 
114.669 17.0245 0 
113.097 15.9981 0 
112.482 15.7869 0 
112.931 17.2566 0 
114.605 16.3162 0 
114.154 16.7555 0 
113.481 15.2428 0 
114.462 16.0955 0 
113.367 16.4188 0 
113.285 16.2726 0 
113.815 15.9794 0 
114.448 15.8159 0 
112.397 16.4268 0 
113.112 15.754 0 
113.797 16.3209 0 
112.353 16.4738 0 
113.663 15.8583 0 
112.739 16.7921 0 
113.196 16.1132 0 
113.197 14.8483 0 
114.109 17.145 0 
114.557 16.5353 0 
112.632 16.7367 0 
113.892 15.611 0 
113.563 15.7943 0 
112.321 15.8687 0 
112.846 16.2999 0 
113.059 16.4359 0 
113.403 16.3486 0 
113.481 15.3987 0 
114.172 16.4444 0 
112.639 16.5219 0 
112.669 15.4632 0 
[...]
      <PointData Vectors="vector">
        <DataArray type="Float32" Name="Velocity" NumberOfComponents="3" format="ascii">

-64.8231 -79.171 0 
-45.6139 -82.8457 0 
-55.6397 -69.8221 0 
-80.2998 -63.3217 0 
-72.7723 -66.5355 0 
-60.2738 -31.8592 0 
-59.2674 -70.4762 0 
-71.0577 -69.9395 0 
-71.087 -69.0949 0 
-51.212 -78.3703 0 
-45.6678 -74.7927 0 
-68.4057 -68.7733 0 
-55.3674 -69.6983 0 
-55.4863 -29.4871 0 
-63.8238 -69.4394 0 
-70.3791 -61.6071 0 
-71.7877 -62.5734 0 
-66.3513 -62.2053 0 
-66.0756 -77.9137 0 
-66.7096 -68.8813 0 
-63.8142 -67.6609 0 
-59.4685 -82.2871 0 
-79.4124 -64.1446 0 
-60.941 -31.4885 0 
-54.41 -67.6066 0 
-94.5413 -22.6605 0 
-47.3029 -94.6726 0 
-69.7398 -56.7853 0 
-68.018 -59.9685 0 
-74.7096 -6.24149 0 
-78.1765 -61.272 0 
-74.7731 -17.165 0 
-50.848 -58.1648 0 
-74.7159 -5.83615 0 
-61.0569 -59.7784 0 
-60.4306 -58.4353 0 
-79.5055 -10.4579 0 
-75.0181 -39.6476 0 
-92.3577 -35.3317 0 
-50.4243 -9.95483 0 
-76.1481 -26.8765 0 
-72.9596 -40.1832 0 
-54.5448 -21.0824 0 
-53.6102 9.66569 0 
-93.0124 10.7468 0 
-94.0879 -44.5673 0 
-74.9025 -43.1011 0 
-38.1332 -9.77673 0 
-41.4583 -13.1591 0 
-73.1466 -44.0824 0 
-67.3719 -19.8107 0 
-50.5898 -4.78784 0 
-81.7248 -27.1616 0 
-81.4838 -24.673 0 
-84.31 -33.0683 0 
-52.4892 -10.8745 0 
-92.6794 -47.9293 0 
-64.1956 -8.26031 0 
-44.8725 2.21887 0 
-39.9339 -23.1073 0 
-73.2712 -20.1439 0 
-93.4535 -38.2515 0 
-92.5789 -42.7673 0 
-86.438 -34.3388 0 
-85.5815 -49.499 0 
-92.5692 -40.7737 0 
-77.7352 -22.9618 0 
-86.8633 -40.8033 0 
-94.2499 28.899 0 
-87.9073 -30.5177 0 
-66.6487 -9.1414 0 
-92.6948 -43.3406 0 
-85.7697 -49.6094 0 
-46.5806 -16.3888 0 
-41.3993 -17.887 0 
-93.6979 43.6201 0 
-74.2931 -22.6024 0 
-77.0519 -29.7686 0 
-87.7134 -40.4366 0 
-53.3491 -11.385 0 
-40.3001 -13.6905 0 
-86.5739 -27.3662 0 
-55.6069 6.45445 0 
-72.1568 -15.7627 0 
-78.5162 -21.9796 0 
-93.6681 32.8401 0 
-91.4358 -40.958 0 
-92.0292 -50.626 0 
-62.6232 -8.22584 0 
-73.8281 -17.0989 0 
-92.7075 -42.9857 0 
-89.6097 -22.2289 0 
-56.0466 -29.4687 0 
-64.6199 -12.0277 0 
-84.3585 -1.53305 0 
-93.3402 -30.7159 0 
-78.3844 -20.3246 0 
-87.1085 57.4784 0 
-92.1657 33.4721 0 
-94.1106 19.5189 0 
-79.5174 46.6228 0 
-65.5861 41.3559 0 
-91.9715 28.9779 0 
-85.4745 51.9309 0 
-84.5761 57.833 0 
-81.8304 19.1438 0 
-80.757 10.56 0 
-73.3891 42.9518 0 
-64.9876 44.8589 0 
-46.0506 23.59 0 
-66.9464 61.2092 0 
-84.7717 69.2144 0 
-91.3036 22.0038 0 
-79.5906 79.9761 0 
-39.172 70.0028 0 
-84.9376 60.2264 0 
-39.304 70.0164 0 
-74.9384 74.9288 0 
-91.5166 21.4984 0 
-84.9963 78.7365 0 
-38.8909 79.5749 0 
-71.1437 89.47 0 
-39.2781 69.987 0 
-74.6294 75.015 0 
-92.2722 62.4767 0 
-84.6258 84.9969 0 
-91.505 21.8525 0 
-73.794 83.6051 0 
-74.4084 89.9968 0 
-74.1251 89.9945 0 
-80.5943 85.4489 0 
-74.6365 74.7948 0 
-43.3706 26.9148 0 
-85.3032 85.3214 0 
-71.2812 84.7932 0 
-89.5624 74.976 0 
-41.9175 11.4872 0 
-92.1771 62.4313 0 
-79.5133 -8.70938 0 
-87.0141 69.5353 0 
-69.2897 69.6992 0 
-89.532 89.8297 0 
-88.4025 72.7385 0 
-84.1028 -74.7685 0 
-69.2697 -44.889 0 
-74.89 -70.2944 0 
-83.1054 -51.0877 0 
-58.6697 -60.9553 0 
-77.9724 -76.2441 0 
-46.1011 -66.0008 0 
-41.7885 -57.7027 0 
-42.5662 -73.1139 0 
-62.5859 -75.377 0 
-59.7638 -69.6326 0 
-50.6649 -69.5779 0 
-74.1754 -84.1526 0 
-37.2304 -63.1637 0 
-50.4392 -85.7226 0 
-61.3792 -52.4858 0 
-46.1965 -67.702 0 
-43.1742 -70.6237 0 
-50.8836 -61.7808 0 
-61.8606 -85.3009 0 
-41.6961 -37.4766 0 
-66.6834 -43.063 0 
-70.3703 -84.7082 0 
-86.9903 -74.7492 0 
-86.5323 -56.2721 0 
-79.3176 -49.1793 0 
-83.8897 -72.4695 0 
-50.9216 -78.6766 0 
-83.3456 -84.4307 0 
-67.5111 -68.9789 0 
-70.6396 -48.5651 0 
-62.7009 -84.3469 0 
-59.403 -84.534 0 
-66.0215 -77.2082 0 
-71.6908 -44.851 0 
-47.0484 -94.2236 0 
-37.8293 -54.7223 0 
-73.5101 -50.8436 0 
-74.4252 -51.7223 0 
-83.0394 -28.2193 0 
-47.4115 -67.022 0 
-75.2081 -45.6833 0 
-51.0394 -53.4044 0 
-78.3034 -40.4319 0 
-63.1907 -36.7368 0 
-66.5788 -25.744 0 
-77.7432 -10.4704 0 
-50.5298 -51.6094 0 
-82.4338 -52.6722 0 
-53.7217 -52.7328 0 
-61.5938 -59.8615 0 
-62.9228 -47.3936 0 
-76.8185 -64.6026 0 
-63.5295 -58.0827 0 
-91.6216 -48.347 0 
-58.3757 -60.193 0 
-71.1032 -40.2097 0 
-80.0833 -36.8874 0 
-67.982 -82.6654 0 
-74.883 -10.1944 0 
-54.8076 -62.796 0 
-84.5933 -10.6889 0 
-89.4051 -57.0533 0 
-66.7209 -32.8487 0 
-38.6067 -57.7955 0 
-67.7373 -60.0682 0 
-70.1785 -18.5824 0 
-68.2274 -9.42775 0 
-70.9905 -10.0014 0 
-57.3611 -94.0948 0 
-93.4767 -54.9083 0 
-55.4737 -52.5969 0 
-79.2596 -63.4136 0 
-67.602 -16.1656 0 
-63.7721 -51.3597 0 
-68.4283 -60.7136 0 
-51.644 -52.2938 0 
-47.1128 -69.4242 0 
-80.8748 -46.3226 0 
-81.6146 -69.0684 0 
-39.2626 -15.0811 0 
-82.2759 -32.7293 0 
-55.0869 -62.2894 0 
-79.4604 -65.8381 0 
-79.7905 -56.1163 0 
-82.7561 -18.5941 0 
-84.5837 -30.5665 0 
-37.5344 -36.1125 0 
-52.5102 -64.1381 0 
-50.9595 -62.9911 0 
-49.5009 -63.3107 0 
-80.9603 -73.8603 0 
-74.1863 -37.7229 0 
-61.4481 -62.1082 0 
-65.3941 -50.2419 0 
-71.5976 -45.236 0 
-47.3091 -67.6014 0 
-65.3972 -54.4634 0 
-62.0411 -60.8666 0 
-56.7126 -60.6733 0 
-74.6995 -35.4437 0 
-52.3715 -74.451 0 
-68.3894 -54.1154 0 
-59.4444 -54.0378 0 
-75.256 -12.6693 0 
-85.0278 -30.3164 0 
-76.6686 -68.4319 0 
-77.9869 -30.0779 0 
-84.4861 -32.8335 0 
-65.8049 -62.2527 0 
-75.8904 -46.2134 0 
-67.6579 -49.608 0 
-82.1485 -76.5557 0 
-49.1439 -70.393 0 
-65.2295 -27.8399 0 
-40.7003 -36.5482 0 
-64.9234 -38.1478 0 
-92.4962 -53.1399 0 
-67.2158 -54.2211 0 
-61.961 -49.5505 0 
-76.8086 -29.943 0 
-52.9736 -57.103 0 
-50.8819 -53.1421 0 
-93.9288 -46.1893 0 
-69.3604 -79.0507 0 
-50.127 -54.0252 0 
-74.3389 -20.5251 0 
-54.0814 -61.1814 0 
-64.9979 -34.9681 0 
-62.1183 -27.8671 0 
-83.9399 -54.3853 0 
-61.3045 -61.3214 0 
-57.4885 -53.2649 0 
-57.6082 -94.0882 0 
-80.1597 -59.4744 0 
-74.9393 -27.2361 0 
-74.0842 -91.8888 0 
-57.5348 -69.8015 0 
-24.7388 -55.9343 0 
-94.3746 -64.1621 0 
-84.7056 -9.03898 0 
-84.7176 -9.99759 0 
-38.6771 -78.9283 0 
-55.7313 -56.6836 0 
-56.2428 -53.7684 0 
-90.5764 -80.0875 0 
-75.1397 -23.3069 0 
-82.2909 -37.6608 0 
-49.8808 -51.4027 0 
-59.8775 -65.4607 0 
-68.3932 -24.4682 0 
-75.6504 -67.9615 0 
-84.4158 -28.8522 0 
-84.7245 -9.99848 0 
-68.6174 -60.604 0 
-73.2273 -43.1808 0 
-60.2737 -38.9846 0 
-87.8848 -58.2926 0 
-66.277 -61.7936 0 
-68.685 -70.7882 0 
-71.8848 -50.3735 0 
-66.0831 -31.9003 0 
-65.2689 -29.3085 0 
-70.7261 -57.889 0 
-61.4968 -55.6026 0 
-44.6837 -45.2478 0 
-84.7175 -10.0024 0 
-86.7868 -29.1313 0 
-61.1786 -43.133 0 
-74.776 -62.7849 0 
-51.7426 -62.5254 0 
-81.2171 -59.5408 0 
-49.9801 -69.5728 0 
-29.1651 -41.1714 0 
-70.3818 -73.3541 0 
-69.1381 -81.1275 0 
-53.0332 -69.9549 0 
-68.0916 -20.3136 0 
-75.8515 -58.2326 0 
-22.5794 -47.9266 0 
-86.1839 -49.2133 0 
-56.306 -52.987 0 
-73.3911 -80.8677 0 
-50.1941 -66.5377 0 
-83.548 -8.80924 0 
-61.608 -58.5122 0 
-36.1633 -42.6244 0 
-73.4798 -62.4577 0 
-76.6133 -48.6804 0 
-57.9378 -48.3208 0 
-70.1558 -54.479 0 
-63.9211 12.4783 0 
-63.8242 -14.4037 0 
-84.5122 34.1963 0 
-72.8002 -2.9061 0 
-55.7449 -8.08602 0 
-48.9843 20.6413 0 
-84.6844 22.9183 0 
-59.7346 6.07351 0 
-49.0787 -15.0336 0 
-24.87 4.16992 0 
-53.5533 23.3156 0 
-66.5017 -1.98455 0 
-51.6833 20.8536 0 
-46.4713 -26.4738 0 
-87.1949 -3.57103 0 
-65.5212 -9.76573 0 
-62.8924 5.07015 0 
-93.9114 0.398411 0 
-40.9828 4.24667 0 
-73.1868 -10.6381 0 
-62.1303 10.4013 0 
-60.9516 -39.5271 0 
-59.7935 -20.3003 0 
-58.3598 -5.17974 0 
-44.6883 -26.0444 0 
-47.5981 -7.12928 0 
-69.8439 -10.6547 0 
-54.0561 -0.181435 0 
-31.2402 -14.595 0 
-58.5522 -14.9979 0 
-68.3019 2.44163 0 
-45.313 -9.90107 0 
-41.8348 22.652 0 
-65.7842 13.5236 0 
-69.8048 -3.97325 0 
-66.1686 25.4927 0 
-64.0519 4.64465 0 
-25.7996 -15.1286 0 
-48.2529 -9.59449 0 
-58.7315 8.31992 0 
-75.1275 -2.79431 0 
-80.5958 -5.64277 0 
-68.3048 -23.6531 0 
-63.9671 -14.1869 0 
-58.5887 -2.6497 0 
-83.7852 24.7727 0 
-85.8789 -32.7569 0 
-63.4824 2.50063 0 
-80.2728 9.24019 0 
-71.208 4.47042 0 
-79.0096 -11.7482 0 
-68.4331 -33.3942 0 
-48.9579 1.2781 0 
-46.433 -30.6714 0 
-87.6763 -20.0997 0 
-42.6385 29.2133 0 
-94.4473 -41.8843 0 
-73.8956 24.2823 0 
-69.9106 -9.84611 0 
-27.3228 -14.1563 0 
-72.8083 -29.8698 0 
-84.823 -60.8515 0 
-33.5146 -19.23 0 
-41.4271 -1.65699 0 
-80.8232 10.8533 0 
-75.3509 -40.6999 0 
-53.5708 6.74966 0 
-53.0604 -59.0763 0 
-66.1575 -8.62477 0 
-88.4401 -51.1679 0 
-27.1119 -10.9606 0 
-56.8781 8.60441 0 
-58.0876 -16.7663 0 
-55.7036 37.3471 0 
-88.6146 3.98391 0 
-70.6255 -0.201107 0 
-65.9233 -17.0258 0 
-73.2532 -31.5411 0 
-49.0127 1.99329 0 
-52.2371 4.44398 0 
-38.6173 1.89301 0 
-63.0747 2.505 0 
-70.4515 -3.37438 0 
-52.153 12.2226 0 
-72.7742 -10.9532 0 
-84.4542 10.6813 0 
-34.4739 -19.8288 0 
-47.6642 12.5326 0 
-38.3283 -1.53324 0 
-80.2769 -13.3398 0 
-39.054 -15.8625 0 
-43.3557 29.8865 0 
-52.2632 -12.9266 0 
-66.089 -3.53173 0 
-64.779 -6.24214 0 
-55.326 6.95585 0 
-64.9607 0.296903 0 
-70.3952 -28.6947 0 
-25.5254 -7.35542 0 
-94.3162 -45.2098 0 
-71.0359 2.31673 0 
-71.9091 -12.4085 0 
-49.8577 -40.4451 0 
-81.9932 13.0165 0 
-81.9793 5.51373 0 
-48.5885 -58.4544 0 
-46.7857 2.46583 0 
-78.1677 -13.1513 0 
-47.3624 -5.44865 0 
-53.6509 17.4712 0 
-72.614 2.20345 0 
-71.5958 4.67678 0 
-41.3176 -24.9558 0 
-60.1441 14.1978 0 
-64.9072 23.3457 0 
-75.0086 -8.11549 0 
-84.4436 32.2326 0 
-38.2424 31.5835 0 
-83.6926 20.5802 0 
-94.1898 5.29715 0 
-55.0572 -3.49577 0 
-71.2043 -4.63201 0 
-81.4137 -24.9908 0 
-71.8781 0.877948 0 
-85.8939 2.54455 0 
-72.7171 -14.4254 0 
-60.4093 -7.15364 0 
-85.4855 -0.815531 0 
-74.6661 -15.752 0 
-25.4676 -6.9777 0 
-68.7821 -21.5913 0 
-32.461 0.903517 0 
-47.9094 -4.69397 0 
-77.9908 -33.7155 0 
-69.1161 4.38801 0 
-75.4057 -11.6911 0 
-83.1067 -12.7457 0 
-57.3446 -0.00307675 0 
-74.5542 17.8828 0 
-84.7137 2.56932 0 
-65.5847 18.3179 0 
-59.337 -3.24171 0 
-66.6092 -1.0893 0 
-60.8532 4.8842 0 
-41.002 -16.0003 0 
-84.1009 -14.2531 0 
-84.3464 27.4819 0 
-69.4009 -7.61415 0 
-75.0957 -0.0590909 0 
-74.9602 5.26424 0 
-77.5078 0.646264 0 
-81.7802 -12.9938 0 
-66.2409 4.3857 0 
-65.9925 -13.4474 0 
-45.2921 4.28669 0 
-40.4442 -1.78889 0 
-40.8179 -4.03055 0 
-55.2221 -3.10482 0 
-64.294 -33.4128 0 
-63.9874 -0.0812651 0 
-76.3045 21.7438 0 
-49.3885 -9.67546 0 
-63.6883 9.03986 0 
-71.9352 19.4332 0 
-56.9423 7.3733 0 
-57.8821 5.33344 0 
-46.1896 -47.1357 0 
-32.2391 30.2274 0 
-63.9604 -33.935 0 
-64.6633 -4.88362 0 
-80.298 -31.9039 0 
-33.8585 26.4745 0 
-37.585 22.1364 0 
-71.447 -57.5151 0 
-46.3391 -46.6504 0 
-41.0193 -5.5469 0 
-70.7185 -34.3333 0 
-44.3074 -30.0514 0 
-58.3776 -17.7851 0 
-77.3921 -12.8837 0 
-52.3765 -13.9842 0 
-74.4861 19.0887 0 
-82.0933 -18.2738 0 
-47.6148 -24.8241 0 
-64.3052 0.291718 0 
-89.0448 -35.6402 0 
-60.6548 7.00791 0 
-58.828 -9.81889 0 
-58.5983 3.28764 0 
-58.3796 4.75648 0 
-80.8847 -58.1851 0 
-55.6677 -10.0475 0 
-59.5951 4.13375 0 
-69.1475 -10.3662 0 
-68.5863 -9.98283 0 
-74.8438 4.99867 0 
-50.0268 -56.2459 0 
-68.7955 -0.0734807 0 
-89.1485 -27.2449 0 
-39.1366 27.19 0 
-33.7791 -12.6018 0 
-51.0397 -1.53905 0 
-44.4323 37.4482 0 
-90.4077 4.23136 0 
-55.8888 -1.90486 0 
-33.1084 15.5658 0 
-84.5017 15.3474 0 
-66.0991 -53.2824 0 
-75.0616 21.6965 0 
-60.5797 4.28795 0 
-53.846 -9.76779 0 
-59.7446 6.55462 0 
-54.6527 12.4089 0 
-93.9436 5.01106 0 
-57.6869 -44.4909 0 
-63.2456 1.38481 0 
-25.0447 2.43709 0 
-69.0898 -4.62801 0 
-57.2207 28.1925 0 
-59.9247 6.67997 0 
-78.9784 -32.6563 0 
-39.5245 7.40874 0 
-46.8656 -54.8991 0 
-68.1537 -9.18242 0 
-28.7581 -10.7261 0 
-66.841 -0.971283 0 
-66.7575 -2.38589 0 
-69.008 -28.4634 0 
-65.0357 -8.2054 0 
-88.052 -19.6815 0 
-40.3513 -27.524 0 
-65.059 -7.51038 0 
-71.7398 -6.80022 0 
-58.9264 -0.0602627 0 
-59.3517 -34.4299 0 
-65.2668 -7.72654 0 
-62.6139 -19.8768 0 
-37.0178 -23.3128 0 
-42.827 -29.485 0 
-44.8004 -16.6684 0 
-71.8015 -19.1139 0 
-84.1911 -26.7532 0 
-43.4084 13.667 0 
-69.5028 2.78409 0 
-59.6917 11.6662 0 
-71.702 -21.5561 0 
-88.5852 -50.2431 0 
-58.5018 -0.436737 0 
-65.4388 -5.48276 0 
-51.552 -53.3067 0 
-88.4436 -35.9826 0 
-66.8671 -7.32643 0 
-61.2962 5.28881 0 
-68.2176 -12.4274 0 
-49.0491 6.33622 0 
-71.8607 -0.101525 0 
-71.4914 -24.7337 0 
-61.2639 4.00525 0 
-70.6884 -23.4553 0 
-83.4328 5.83117 0 
-57.1695 -36.7754 0 
-64.4161 18.6946 0 
-84.4782 27.4625 0 
-34.5927 -14.9694 0 
-53.9511 -44.2976 0 
-78.4646 -48.3652 0 
-81.7778 -13.2367 0 
-79.7823 -6.34208 0 
-38.421 33.5083 0 
-61.556 5.34716 0 
-75.0639 0.103113 0 
-86.4565 -14.5918 0 
-58.0709 -1.0112 0 
-93.7905 -28.9861 0 
-45.1806 -5.35126 0 
-33.9285 20.3071 0 
-65.7241 -4.52843 0 
-63.5277 -4.32067 0 
-87.8623 -25.231 0 
-88.8989 18.2326 0 
-88.019 -17.3685 0 
-51.7825 -62.347 0 
-50.4092 -43.7888 0 
-68.92 0.255706 0 
-93.874 -26.0357 0 
-64.3341 -33.5527 0 
-58.3799 -9.63078 0 
-67.7238 -7.5599 0 
-19.3734 25.6396 0 
-34.2763 -10.2837 0 
-46.7233 1.06235 0 
-27.2033 21.905 0 
-24.0428 51.6726 0 
-34.4777 -0.980164 0 
-74.0176 37.9441 0 
-85.3671 7.46608 0 
-46.7823 26.5733 0 
-43.6957 7.11426 0 
-48.818 26.6148 0 
-63.533 -3.45815 0 
-27.1269 40.497 0 
-73.8865 22.6127 0 
-24.9469 -7.54494 0 
-27.2902 41.7617 0 
-76.5966 -10.3055 0 
-25.0638 43.1358 0 
-76.7695 6.65934 0 
-72.6783 2.42355 0 
-60.2785 23.1505 0 
-76.3045 -0.450347 0 
-75.0136 16.5365 0 
-77.0488 7.63844 0 
-33.9039 -4.73919 0 
-77.8756 7.45509 0 
-66.1725 -28.8288 0 
-71.005 34.6481 0 
-38.698 45.9563 0 
-86.9208 5.68554 0 
-75.8465 -2.48797 0 
-72.0534 7.70998 0 
-83.5913 -29.1237 0 
-84.9387 14.3139 0 
-75.0491 -9.16139 0 
-36.75 -5.34343 0 
-76.0671 11.6399 0 
-84.6255 13.2595 0 
-64.3675 -25.2971 0 
-60.7549 -8.94149 0 
-39.77 6.82129 0 
-61.3742 -26.1002 0 
-39.7962 39.4832 0 
-89.1914 -16.1396 0 
-66.9046 12.9994 0 
-40.0446 3.98257 0 
-44.5737 -14.5656 0 
-61.0901 -28.574 0 
-63.1161 37.2365 0 
-53.0299 -8.95211 0 
-61.7902 -24.9351 0 
-47.1469 24.5402 0 
-68.6849 -5.20682 0 
-19.2727 25.72 0 
-72.8533 29.9352 0 
-39.7253 50.6615 0 
-60.9157 8.44153 0 
-76.1611 3.54449 0 
-69.2575 -28.2572 0 
-63.6526 42.1784 0 
-56.2248 12.2164 0 
-66.6744 0.493722 0 
-62.8764 31.8708 0 
-40.3598 -28.1993 0 
-73.9279 -8.68886 0 
-39.1289 56.925 0 
-29.5587 72.2103 0 
-63.3756 60.6746 0 
-73.2052 22.3753 0 
-17.8151 67.3999 0 
-55.7918 63.4021 0 
-71.0355 27.0894 0 
-91.0797 49.7084 0 
-56.8764 47.9607 0 
-55.9404 62.678 0 
-91.8584 53.645 0 
-39.2335 68.8182 0 
-38.765 65.6078 0 
-90.9708 2.97088 0 
-91.8257 60.8049 0 
-86.8222 -7.12419 0 
-20.4541 64.9653 0 
-66.5827 38.4741 0 
-57.8671 27.8527 0 
-9.20886 66.1891 0 
-63.1578 62.1798 0 
-91.8266 60.846 0 
-91.924 55.3351 0 
-92.2484 57.4224 0 
-83.356 61.5401 0 
-9.67131 65.3618 0 
-9.40772 68.2737 0 
-82.4635 36.668 0 
-53.0016 58.8749 0 
-62.2629 68.1099 0 
-41.8234 60.4326 0 
-91.7664 55.1098 0 
-55.9742 62.6159 0 
-29.6574 75.6237 0 
-10.1734 6.99543 0 
-62.569 52.483 0 
-56.811 59.1637 0 
-39.2193 58.6453 0 
-91.75 59.3943 0 
-9.54605 77.6553 0 
-91.9815 55.537 0 
-57.1515 52.9793 0 
-91.5611 24.1202 0 
-56.043 62.6735 0 
-60.4369 14.8871 0 
-69.1278 63.1915 0 
-41.5483 67.1931 0 
-52.1298 63.8219 0 
-85.7834 69.0546 0 
-64.8905 57.4384 0 
-67.1601 57.1886 0 
-63.2653 64.2137 0 
-46.9712 54.6796 0 
-66.5966 56.797 0 
-45.0719 60.6672 0 
-59.168 68.4444 0 
-73.0372 61.4756 0 
-66.7879 65.5971 0 
-44.1764 65.9626 0 
-63.6448 63.5916 0 
-64.0698 63.4542 0 
-59.3094 65.1392 0 
-62.1018 67.4568 0 
-74.7898 61.2392 0 
-57.9801 67.095 0 
-69.5469 67.3843 0 
-67.1891 68.246 0 
-72.2553 89.6883 0 
-71.0399 61.5648 0 
-78.9866 89.3884 0 
-83.7654 61.643 0 
-63.6459 58.9177 0 
-66.5377 57.8631 0 
-73.9299 49.3264 0 
-34.5497 65.6147 0 
-54.694 74.5615 0 
-52.1784 -84.6573 0 
-70.5686 -56.6086 0 
-85.2195 -64.5284 0 
-48.526 -90.67 0 
-70.2015 -56.1065 0 
-6.09919 -90.4121 0 
-93.8659 -55.2165 0 
-25.6372 -64.0065 0 
-53.5778 -84.7258 0 
-12.5276 -85.5157 0 
-38.9759 -75.4091 0 
-37.9957 -65.7096 0 
-32.0441 -94.1108 0 
-33.0306 -74.0598 0 
-65.1871 -93.9249 0 
-73.7478 -94.0879 0 
6.66287 -82.1775 0 
-12.3846 -84.9107 0 
-82.6872 -66.042 0 
-3.88045 -94.0032 0 
-37.5375 -81.5937 0 
-36.1682 -54.0106 0 
-47.4675 -74.6868 0 
-27.9855 -83.3562 0 
-61.7483 -65.407 0 
-34.224 -93.9325 0 
-33.7504 -73.3782 0 
-46.9937 -90.3829 0 
-65.5252 -57.1439 0 
-70.1181 -56.8256 0 
-66.5805 -94.0158 0 
-37.8363 -66.1654 0 
-24.9522 -48.9354 0 
-61.959 -76.5177 0 
-43.9182 -78.3446 0 
-42.5219 -74.541 0 
-68.6887 -74.5105 0 
-12.1994 -94.3316 0 
-70.2226 -94.3056 0 
-53.8053 -49.3027 0 
-61.3021 -79.4992 0 
-74.2223 -60.164 0 
7.62224 -93.498 0 
-55.0042 -46.6405 0 
-85.4592 -64.598 0 
-15.7363 -94.2779 0 
-69.5788 -64.8107 0 
-36.5594 -84.8744 0 
-72.8828 -53.941 0 
-30.7863 -75.7576 0 
-53.8826 -89.5039 0 
-60.8128 -60.2473 0 
-12.5463 -83.4487 0 
-24.2766 -75.0619 0 
-57.8474 -47.3517 0 
-41.054 -79.7674 0 
-74.085 -61.5749 0 
-39.725 -74.7243 0 
-55.1063 -53.9246 0 
-5.81246 -62.661 0 
1.64852 -66.9256 0 
-72.1543 -93.9685 0 
-25.4809 -65.6048 0 
-25.467 -75.2088 0 
-41.5932 -23.7492 0 
-25.9099 -62.1154 0 
-3.36298 -27.3903 0 
-69.9429 -62.5633 0 
-69.0673 -45.8037 0 
-4.19153 -48.1341 0 
-51.3492 -41.433 0 
-55.963 -51.2131 0 
-64.4359 -46.9942 0 
-54.9157 -56.7213 0 
-73.0203 -89.4316 0 
-40.2587 -90.0659 0 
-77.0804 -48.397 0 
-69.9259 -50.9672 0 
-66.8095 -54.8941 0 
-53.96 -48.2186 0 
-70.2062 -43.9931 0 
-32.4225 -24.203 0 
-54.9361 -38.2627 0 
-41.8868 -51.8174 0 
-45.1958 -90.5324 0 
-59.7255 -37.5818 0 
-64.4768 -65.0648 0 
-16.6792 -78.5107 0 
-34.9439 -70.9438 0 
-68.612 -44.5103 0 
-65.241 -54.8204 0 
-32.2791 -69.1975 0 
-74.4923 -56.3082 0 
-44.8566 -62.7702 0 
-39.1778 -61.2506 0 
-46.5591 -75.2065 0 
-7.39912 -59.3711 0 
-42.0694 -32.4432 0 
-76.3792 -63.0232 0 
-69.9745 -60.925 0 
-46.5477 -47.0023 0 
-64.6355 -44.2817 0 
-57.3594 -84.6107 0 
-21.8325 -69.2037 0 
-25.1484 -55.0671 0 
-46.0165 -39.2558 0 
-58.9593 -64.3664 0 
-6.32663 -79.4138 0 
-55.794 -45.7517 0 
-37.9517 -79.0736 0 
-60.5431 -54.0148 0 
-35.7276 -51.0488 0 
-60.2081 -79.1834 0 
-65.2632 -63.1118 0 
-73.8544 -59.9266 0 
-49.1379 -82.3126 0 
-68.353 -48.2095 0 
-37.0482 -79.4938 0 
-58.1564 -51.2985 0 
-43.6791 -84.3808 0 
-64.5578 -42.3623 0 
-44.5403 -35.2368 0 
-13.2755 -15.1318 0 
-46.4947 -9.12851 0 
-37.3646 -48.5151 0 
-71.5141 -45.2638 0 
-69.8409 -63.7987 0 
-57.7311 -34.859 0 
-49.7042 -60.3396 0 
-39.9963 -48.5695 0 
-64.9529 -49.1209 0 
-64.7973 -36.8981 0 
-59.6239 -35.3942 0 
-6.72023 -4.6073 0 
-57.264 -13.4871 0 
-63.2646 -4.87966 0 
-50.0788 -81.003 0 
-80.3034 -59.9961 0 
-52.1606 -35.1901 0 
-69.0586 -44.578 0 
-53.5239 -44.6557 0 
-35.8068 -54.1114 0 
-49.2598 -46.7258 0 
-64.7149 -44.1108 0 
-55.0799 -46.4285 0 
-29.8493 -25.4072 0 
-42.9427 -86.6811 0 
-64.6127 -74.3352 0 
-54.7269 -55.559 0 
-55.4657 -57.9091 0 
-60.1061 -14.5582 0 
-43.1491 -53.247 0 
-38.3898 -64.5951 0 
-49.0556 -33.958 0 
-67.5734 -38.2906 0 
-52.4437 -41.9367 0 
-77.8366 -36.1717 0 
-9.83387 -32.1014 0 
-55.3896 -47.0185 0 
-44.2995 -45.6157 0 
-40.3838 -42.9376 0 
-45.0123 -86.5662 0 
-66.1604 -53.3654 0 
-70.8828 -94.074 0 
-48.6203 -81.926 0 
-57.6168 -66.8098 0 
-69.9102 -41.961 0 
-51.2984 -53.1756 0 
-36.7806 -67.205 0 
-56.2207 -14.6887 0 
-75.8727 -60.4718 0 
-64.9633 -54.8489 0 
-82.1537 -42.8246 0 
-73.651 -59.8641 0 
-25.3593 -49.1146 0 
-69.668 -29.3005 0 
-41.6141 -40.5408 0 
-64.0081 -47.054 0 
-69.6759 -55.0639 0 
-69.2174 -64.3183 0 
-43.0507 -19.9404 0 
-56.3581 -35.8296 0 
-39.6944 -51.991 0 
-59.8551 -57.1489 0 
-73.3169 -16.5317 0 
-69.7941 -35.6086 0 
-69.7046 -62.9656 0 
-19.2865 -67.9899 0 
-40.3031 -42.3813 0 
6.04825 -53.7002 0 
-40.75 -48.6561 0 
-69.6384 -40.4459 0 
-52.1672 -34.6616 0 
-31.517 -69.1119 0 
-44.6051 -49.3583 0 
-55.9182 -11.4156 0 
-48.8823 -47.8457 0 
-52.9452 -60.3132 0 
-69.7555 -44.8292 0 
-74.3373 -59.6933 0 
-35.2088 -50.9481 0 
-69.7232 -54.3136 0 
-67.3737 -53.7972 0 
-62.5806 -53.6993 0 
-69.6474 -40.1446 0 