<VTKFile type="UnstructuredGrid" version="0.1" byte_order="BigEndian">
  <UnstructuredGrid>
        <Piece NumberOfPoints="8000" NumberOfCells="0" Time= "0.4">      <Points>
        <DataArray name="Position" type="Float32"  NumberOfComponents= "3"  format="ascii">

48.5049 11.5694 0 
51.1215 24.8335 0 
52.9821 19.2324 0 
55.6103 19.9049 0 
55.3233 21.1096 0 
55.75 26.7007 0 
54.8709 34.2164 0 
59.068 4.94507 0 
58.5723 8.12329 0 
57.3647 21.4753 0 
58.0945 21.1271 0 
58.1951 23.5667 0 
57.2292 24.3876 0 
56.9461 29.4971 0 
58.3589 30.6882 0 
60.7761 1.73691 0 
60.3295 4.26563 0 
60.4281 8.38953 0 
61.0867 11.3548 0 
60.4131 11.7318 0 
59.4076 13.25 0 
59.221 12.9835 0 
59.8049 15.5535 0 
60.9499 17.0551 0 
61.1722 17.3422 0 
60.2688 17.985 0 
60.8002 19.786 0 
60.3254 20.549 0 
60.1555 19.6558 0 
59.7267 21.1499 0 
60.3951 24.177 0 
61.1471 22.6262 0 
59.3925 23.7231 0 
60.3189 24.2567 0 
59.4915 26.2248 0 
60.8783 26.3353 0 
60.4045 28.342 0 
59.9138 30.0022 0 
61.3177 31.2622 0 
61.2194 32.6098 0 
61.2163 33.2892 0 
60.7136 34.24 0 
59.0233 32.2663 0 
59.5987 36.4204 0 
60.5826 36.6619 0 
61.4386 37.2607 0 
63.3007 39.96 0 
63.0564 38.7591 0 
62.1298 2.08241 0 
63.9904 37.9177 0 
62.23 1.29357 0 
63.6012 1.22145 0 
62.4506 4.21005 0 
62.8792 3.31912 0 
63.5795 6.3615 0 
62.5024 8.52698 0 
63.8121 9.08948 0 
63.7957 6.93036 0 
63.1171 7.46651 0 
63.1426 9.04485 0 
63.4673 11.3005 0 
63.7173 10.5009 0 
63.0438 10.8731 0 
62.3439 13.1346 0 
61.4027 12.0578 0 
61.4603 13.9214 0 
63.4292 12.9244 0 
63.0518 12.7507 0 
62.5895 13.7869 0 
61.9346 13.6364 0 
62.0335 11.7048 0 
63.6331 12.5489 0 
62.8137 15.0734 0 
62.9777 16.8868 0 
61.4163 15.3416 0 
63.3969 14.3338 0 
62.1574 15.2393 0 
62.7731 16.2147 0 
63.0393 14.3711 0 
62.907 16.0175 0 
63.4986 17.5005 0 
62.5393 17.4184 0 
63.7643 18.7526 0 
63.1207 19.1964 0 
62.2609 18.8768 0 
63.0366 20.5279 0 
64.131 22.7373 0 
62.6347 21.9423 0 
63.3221 19.5943 0 
62.9649 24.4844 0 
63.4389 23.2552 0 
62.0012 24.3192 0 
63.7016 25.7728 0 
61.5549 25.4526 0 
62.9429 27.8849 0 
62.3813 27.9939 0 
63.2552 28.8663 0 
62.0889 28.6356 0 
63.4394 31.2619 0 
61.6814 29.7229 0 
62.5086 30.9062 0 
63.4171 30.5284 0 
61.532 34.3026 0 
62.8232 34.0887 0 
62.8089 33.4658 0 
63.4702 35.983 0 
61.3727 35.7155 0 
62.5292 35.7089 0 
62.1178 36.6251 0 
61.9292 34.4756 0 
61.7602 36.6708 0 
62.0566 38.7672 0 
62.7868 37.4745 0 
61.8009 38.416 0 
63.3272 37.2494 0 
63.0539 37.631 0 
66.1759 0.778486 0 
65.272 1.40596 0 
65.2778 37.677 0 
65.9875 0.6185 0 
64.0769 1.72388 0 
66.279 1.17583 0 
65.1134 1.45603 0 
65.7771 3.57589 0 
64.4816 4.48789 0 
65.1228 2.6137 0 
66.3321 3.25886 0 
65.5097 2.87495 0 
64.9955 4.16248 0 
65.1951 5.57802 0 
65.8636 5.81202 0 
66.2213 5.8324 0 
64.1263 5.81106 0 
64.6053 6.47693 0 
65.2084 7.09833 0 
65.4875 9.12935 0 
63.8744 7.76646 0 
66.3404 9.17405 0 
65.6871 8.75427 0 
63.9032 8.58974 0 
66.3001 10.3029 0 
65.366 10.8069 0 
64.5963 11.1676 0 
64.1537 9.54406 0 
66.4544 11.0887 0 
64.5477 10.7549 0 
65.5534 11.3772 0 
64.2514 13.5138 0 
64.7633 14.2783 0 
66.1562 13.6855 0 
64.7926 14.0117 0 
66.2578 15.1323 0 
66.1731 16.1716 0 
66.2099 15.4793 0 
65.2931 16.5815 0 
65.8285 15.6255 0 
66.1696 15.2652 0 
65.3557 15.1067 0 
65.055 15.884 0 
64.4888 16.6258 0 
66.6229 17.7888 0 
65.5744 15.0761 0 
64.9374 16.3266 0 
66.0844 16.6946 0 
65.8086 16.8524 0 
64.0584 18.2878 0 
66.1579 16.5611 0 
65.096 16.9341 0 
65.6374 18.5767 0 
64.8026 17.8113 0 
65.444 18.7522 0 
65.8795 18.1092 0 
66.3793 18.4282 0 
65.6958 19.4488 0 
64.4142 20.0133 0 
63.9808 18.0822 0 
65.6701 21.1343 0 
65.9893 21.6777 0 
64.6161 19.4461 0 
64.6446 19.2968 0 
65.394 20.3219 0 
64.1811 19.971 0 
63.8447 19.3547 0 
66.005 24.3805 0 
65.5685 24.2931 0 
66.4527 23.7418 0 
65.9141 23.8952 0 
64.4724 23.8779 0 
65.1315 23.5147 0 
65.5209 22.2281 0 
65.4706 24.6254 0 
65.5596 25.9106 0 
66.1655 24.745 0 
64.9254 25.5612 0 
64.4688 26.2217 0 
65.9246 25.9653 0 
66.1512 26.6963 0 
63.8449 28.7211 0 
65.7019 28.5079 0 
64.244 27.1391 0 
64.8694 28.7354 0 
65.6189 28.8765 0 
66.3303 29.8411 0 
64.7896 29.3949 0 
66.0713 27.5368 0 
65.3284 27.6238 0 
66.0776 30.2861 0 
64.3523 30.0806 0 
66.1851 30.9458 0 
64.9846 30.7983 0 
64.6297 29.7001 0 
66.4417 30.719 0 
65.037 31.848 0 
65.3817 29.7938 0 
64.7656 30.9197 0 
64.4568 30.9003 0 
64.2782 29.5149 0 
65.363 30.0198 0 
66.3734 31.1272 0 
65.7506 32.142 0 
66.062 32.8369 0 
64.2483 33.406 0 
65.911 34.033 0 
64.7288 32.9788 0 
63.935 33.5934 0 
66.3638 34.1379 0 
65.6626 34.5599 0 
65.7012 34.1561 0 
65.3723 36.2519 0 
66.2336 35.5027 0 
65.1944 34.8245 0 
65.9571 36.2026 0 
64.7857 36.9193 0 
64.2972 37.1391 0 
64.7097 38.5797 0 
66.0165 37.6861 0 
68.5859 1.76989 0 
68.209 38.9388 0 
69.0175 1.99059 0 
66.672 1.52707 0 
67.2951 1.16885 0 
67.5428 0.662369 0 
67.9955 1.90004 0 
66.3996 1.33261 0 
67.4317 0.540228 0 
67.1027 1.16977 0 
66.8448 2.75852 0 
68.6222 2.18003 0 
67.4875 2.53857 0 
67.9136 2.23484 0 
67.6678 3.14435 0 
67.3918 2.6206 0 
68.7796 4.30824 0 
68.1623 5.23709 0 
67.8783 5.13754 0 
67.3843 6.50113 0 
67.2557 5.25272 0 
68.5387 5.97841 0 
66.9856 6.48228 0 
66.8844 5.70636 0 
66.7574 5.87884 0 
67.3581 4.33842 0 
66.928 5.53986 0 
68.4561 4.67808 0 
68.0807 6.83943 0 
66.8954 5.2337 0 
68.2212 5.18922 0 
67.9965 4.7039 0 
68.7593 5.72158 0 
67.0957 7.33956 0 
68.0328 9.53843 0 
67.1208 9.02643 0 
68.6615 7.55858 0 
68.8588 8.86323 0 
68.1624 7.86388 0 
67.0949 6.8927 0 
66.841 8.13843 0 
67.6049 8.4325 0 
67.7668 11.8851 0 
67.0868 10.795 0 
66.9326 9.60658 0 
68.7927 9.2415 0 
67.8913 9.5321 0 
67.2693 9.30151 0 
66.7895 10.4559 0 
69.0535 10.6463 0 
67.9823 10.8502 0 
68.2338 10.1852 0 
67.4439 11.3119 0 
66.9251 10.3078 0 
68.8766 10.9753 0 
68.5102 9.98841 0 
68.3598 10.8153 0 
69.0836 11.8847 0 
67.1864 11.1449 0 
66.3598 11.4688 0 
68.358 11.3954 0 
68.2566 10.2269 0 
68.0925 11.0657 0 
67.6629 11.0238 0 
67.5757 10.7291 0 
66.6868 9.86382 0 
68.0014 12.4584 0 
68.0979 14.1018 0 
67.8255 13.5132 0 
66.6697 13.2016 0 
68.1999 13.5364 0 
68.6862 13.5095 0 
66.7233 14.9468 0 
66.7649 14.0212 0 
67.1211 13.4821 0 
66.5747 12.7848 0 
66.7582 13.4437 0 
68.5366 13.2681 0 
67.5737 13.8073 0 
68.804 12.9471 0 
66.8785 16.6826 0 
67.6525 16.502 0 
68.6493 14.5717 0 
67.8057 14.7421 0 
67.1375 16.3956 0 
67.3713 16.9023 0 
67.4747 16.9787 0 
68.1337 16.6871 0 
67.1549 15.2022 0 
68.2332 14.7485 0 
67.9739 16.0533 0 
66.918 14.045 0 
66.6358 16.4593 0 
68.7934 15.8253 0 
67.2482 17.3739 0 
67.815 17.1402 0 
66.6595 17.2179 0 
68.5184 19.5068 0 
67.0708 18.4804 0 
68.1024 17.5428 0 
68.1472 17.9513 0 
68.7452 17.8326 0 
67.8237 18.4278 0 
68.5657 19.6807 0 
68.4225 18.3696 0 
67.5616 19.0713 0 
68.5536 17.6902 0 
67.0729 18.726 0 
67.7299 17.7186 0 
68.4627 21.4918 0 
66.6255 19.9801 0 
67.1701 21.5777 0 
67.0569 21.2165 0 
67.4135 21.6906 0 
66.721 20.8492 0 
67.4485 21.5977 0 
68.8704 20.1267 0 
67.0041 20.9667 0 
66.4094 19.9503 0 
68.5319 21.756 0 
68.9583 19.998 0 
66.7354 20.7296 0 
68.5981 21.1068 0 
68.4245 21.6824 0 
67.2558 20.4847 0 
67.4979 21.6153 0 
67.6376 22.0193 0 
68.4236 23.5861 0 
68.4665 24.0129 0 
67.3491 23.6771 0 
67.3918 22.3697 0 
68.8577 22.8887 0 
67.1416 22.3032 0 
67.547 22.6712 0 
68.3538 24.535 0 
68.435 23.5051 0 
68.7396 21.7912 0 
68.3771 23.6942 0 
67.4999 21.6567 0 
68.2946 23.1051 0 
67.9122 24.1755 0 
67.8758 22.5978 0 
66.9016 26.6688 0 
68.17 26.5095 0 
68.8411 25.8645 0 
68.5073 26.3055 0 
67.0691 26.0028 0 
67.326 25.9233 0 
68.1091 25.37 0 
67.1519 27.6183 0 
67.999 27.1682 0 
68.4861 29.3781 0 
68.7753 27.4537 0 
68.1476 29.3963 0 
67.226 28.1573 0 
68.8269 28.2938 0 
67.9915 28.5676 0 
68.8997 28.5769 0 
66.5741 27.0564 0 
67.9912 29.124 0 
67.7475 28.1092 0 
67.1734 29.5516 0 
67.7817 29.7725 0 
67.048 29.5155 0 
68.0626 31.0686 0 
68.1922 30.4084 0 
67.9466 30.2976 0 
67.1945 32.6601 0 
67.8974 32.1491 0 
66.5214 33.1153 0 
68.8746 35.7233 0 
67.6088 36.6779 0 
66.5819 36.8949 0 
66.4005 35.699 0 
67.4426 36.1947 0 
67.0847 34.778 0 
66.5098 35.4733 0 
68.0366 36.6411 0 
68.5083 35.0174 0 
67.8116 36.9651 0 
69.0272 36.3174 0 
68.1713 37.2566 0 
66.9671 35.0609 0 
67.684 35.0324 0 
68.8335 38.4681 0 
68.4103 38.3919 0 
67.1478 38.7185 0 
68.3877 38.5974 0 
69.1625 39.2493 0 
67.683 37.6421 0 
67.8525 39.3599 0 
68.641 37.7874 0 
71.1714 1.17581 0 
70.9246 38.1096 0 
68.87 0.91087 0 
69.9287 1.18918 0 
68.9718 38.9563 0 
69.9752 38.5158 0 
69.6143 0.194567 0 
71.2133 38.812 0 
70.8671 37.6854 0 
71.3861 0.876112 0 
70.175 0.19492 0 
71.5215 2.04294 0 
69.5323 1.85593 0 
69.4012 3.81511 0 
70.1781 2.66369 0 
70.0999 4.31334 0 
70.7009 4.35911 0 
70.3443 5.05048 0 
70.1794 3.94984 0 
70.7221 3.26117 0 
71.5376 2.32243 0 
69.9321 2.20568 0 
70.3349 2.08374 0 
69.437 5.98545 0 
69.2027 5.05134 0 
71.0187 4.74183 0 
70.3657 5.04 0 
70.7394 4.72973 0 
70.2299 5.06713 0 
68.8075 7.17466 0 
69.5525 5.39836 0 
70.492 5.02279 0 
69.6601 6.27935 0 
70.5203 6.38212 0 
70.3515 6.95844 0 
70.9864 4.13528 0 
69.6259 5.58701 0 
69.5079 5.82899 0 
69.3111 8.11602 0 
69.366 8.20728 0 
70.0026 7.40761 0 
71.2428 9.91844 0 
68.9676 8.75149 0 
70.3212 8.99696 0 
71.3217 8.30322 0 
70.5231 8.59298 0 
70.1168 7.88986 0 
69.4062 9.94178 0 
71.2256 7.2684 0 
71.0964 7.90996 0 
69.5978 7.71831 0 
70.3243 9.07857 0 
70.1677 7.2494 0 
71.2502 9.64543 0 
69.7714 10.2959 0 
69.7037 11.1768 0 
69.3942 10.9681 0 
70.3233 10.5788 0 
70.8335 10.1433 0 
70.3034 9.73965 0 
69.1564 9.52219 0 
71.0521 9.83519 0 
70.3071 9.11037 0 
69.1073 10.341 0 
70.5018 9.77612 0 
70.5935 12.1073 0 
70.555 14.5352 0 
70.4685 13.2511 0 
69.5772 13.5071 0 
70.587 11.9288 0 
68.969 13.5611 0 
69.7059 12.0239 0 
71.334 13.1199 0 
70.8026 14.2771 0 
69.3499 13.553 0 
71.0907 12.3102 0 
69.0548 11.9814 0 
70.0634 13.5853 0 
69.6973 12.4796 0 
70.3876 15.2975 0 
69.296 13.1008 0 
68.768 15.0337 0 
68.8106 16.0609 0 
71.1637 16.0873 0 
70.9245 17.0534 0 
70.6951 14.6703 0 
69.257 15.6315 0 
70.6765 14.3021 0 
71.0627 16.4469 0 
[...]
      <PointData Vectors="vector">
        <DataArray type="Float32" Name="Velocity" NumberOfComponents="3" format="ascii">

-247.14 -185.82 0 
-231.477 -103.832 0 
-217.522 -134.619 0 
-204.114 -67.0263 0 
-235.648 -128.416 0 
-286.864 -98.4634 0 
-212.987 -122.018 0 
-208.987 -16.9087 0 
-222.551 -80.1046 0 
-209.073 -99.281 0 
-178.273 72.2312 0 
-269.548 -148.535 0 
-247.667 -131.191 0 
-184.551 -32.7719 0 
-244.663 -135.382 0 
-197.439 -126.788 0 
-212.42 -146.943 0 
-234.417 -105.951 0 
-230.598 -131.078 0 
-246.204 -66.4834 0 
-207.387 30.9982 0 
-219.57 -64.6173 0 
-196.948 -77.3024 0 
-256.223 -56.9878 0 
-229.424 -83.5388 0 
-220.617 -32.0891 0 
-195.641 -71.7204 0 
-241.2 -75.7652 0 
-261.86 -189.091 0 
-242.129 -194.947 0 
-238.559 -174.302 0 
-185.735 87.8904 0 
-231.342 -148.855 0 
-238.868 -197.084 0 
-249.525 -177.957 0 
-293.005 -169.266 0 
-223.831 -164.72 0 
-278.028 -130.542 0 
-279.269 -143.293 0 
-229.65 -151.821 0 
-273.404 -26.5095 0 
-233.167 -135.72 0 
-230.061 -179.369 0 
-195.716 -139.661 0 
-203.514 -176.223 0 
-231.505 -104.853 0 
-228.766 -28.8104 0 
-222.993 -111.17 0 
-218.21 -99.9087 0 
-208.392 -110.53 0 
-234.516 -89.0312 0 
-220.264 -136.824 0 
-247.101 -146.676 0 
-267.165 -127.424 0 
-224.861 -58.7939 0 
-199.348 -69.3517 0 
-200.365 -100.908 0 
-208.682 -106.66 0 
-227.3 -90.9328 0 
-231.767 -91.3101 0 
-213.309 -73.1235 0 
-249.958 -108.082 0 
-241.047 37.4421 0 
-283.484 -97.9592 0 
-201.199 -27.6955 0 
-208.427 53.9272 0 
-260.929 -44.1194 0 
-246.318 -236.064 0 
-253.596 -71.1051 0 
-220.027 -84.7909 0 
-205.789 -49.0006 0 
-225.88 -56.8657 0 
-230.203 -42.9688 0 
-216.674 -43.6404 0 
-195.948 -28.3509 0 
-207.081 -176.405 0 
-257.446 -57.4523 0 
-232.497 -28.2345 0 
-209.42 -11.0141 0 
-256.324 -184.935 0 
-250.194 -178.285 0 
-221.781 -158.838 0 
-221.204 -177.889 0 
-236.959 -21.2455 0 
-250.833 -34.4007 0 
-184.487 -28.8373 0 
-215.42 -146.545 0 
-227.443 -130.177 0 
-219.5 -180.565 0 
-216.191 -24.254 0 
-239.497 -197.818 0 
-207.277 -153.644 0 
-209.572 16.2068 0 
-192.437 79.3832 0 
-209.575 -26.895 0 
-197.691 -190.677 0 
-266.188 -164.359 0 
-269.897 -39.0568 0 
-226.763 -140.2 0 
-285.876 -158.762 0 
-217.716 -104.856 0 
-283.213 -136.941 0 
-245.696 4.11086 0 
-181.19 112.361 0 
-161.111 3.04091 0 
-210.425 -146.79 0 
-245.048 -144.144 0 
-276.069 -125.179 0 
-258.592 -166.066 0 
-248.501 -153.024 0 
-258.699 -180.544 0 
-227.49 -160.741 0 
-188.672 18.1989 0 
-210.644 -150.255 0 
-239.2 -145.039 0 
-254.015 -173.641 0 
-258.023 -42.8374 0 
-272.147 -96.8766 0 
-164.288 -107.747 0 
-142.383 99.5413 0 
-227.211 -80.7938 0 
-138.414 103.597 0 
-221.687 -130.972 0 
-276.554 -131.021 0 
-188.528 -114.878 0 
-210.693 -100.674 0 
-230.2 -24.7588 0 
-233.603 -103.246 0 
-255.431 -123.322 0 
-245.003 -93.7037 0 
-229.675 -94.9392 0 
-197.845 -103.835 0 
-213.605 145.117 0 
-215.821 -94.4423 0 
-285.195 -56.9377 0 
-274.828 -85.0136 0 
-192.11 -83.4932 0 
-275.817 -99.2345 0 
-207.234 -101.743 0 
-194.449 12.4152 0 
-186.287 -120.078 0 
-210.536 -75.0692 0 
-211.229 -111.881 0 
-234.858 -119.95 0 
-257.501 -94.2623 0 
-213.978 -99.3237 0 
-228.169 -86.8069 0 
-198.113 -105.133 0 
-239.333 -87.9119 0 
-216.956 -80.8293 0 
-245.787 -51.0299 0 
-211.756 -64.1773 0 
-257.41 -115.591 0 
-189.814 -54.8286 0 
-247.657 -249.904 0 
-217.51 -44.4247 0 
-269.779 -99.524 0 
-274.493 -93.599 0 
-254.763 -89.1285 0 
-224.489 -57.3165 0 
-202.826 -90.8762 0 
-198.982 -65.7945 0 
-189.396 44.3844 0 
-236.541 -68.4836 0 
-242.757 -191.673 0 
-261.305 -197.258 0 
-191.027 -19.767 0 
-199.831 -209.29 0 
-246.299 -109.811 0 
-218.898 -56.3371 0 
-233.221 -218.674 0 
-202.614 -106.727 0 
-256.549 -166.828 0 
-208.073 -200.347 0 
-182.489 -57.3509 0 
-182.817 -168.222 0 
-253.716 -193.655 0 
-277.487 -47.4876 0 
-215.292 -196.671 0 
-204.067 83.9894 0 
-249.039 -75.5005 0 
-254.906 -23.4524 0 
-252.354 -161.048 0 
-223.976 -45.177 0 
-256.148 -97.0429 0 
-219.7 -172.304 0 
-249.98 -140.001 0 
-249.366 -167.5 0 
-216.288 -61.2786 0 
-136.305 66.6771 0 
-256.175 -47.208 0 
-231.48 -87.5784 0 
-210.725 -71.7594 0 
-273.701 -190.054 0 
-234.914 -30.3626 0 
-175.252 52.8409 0 
-239.287 -167.772 0 
-184.453 65.8551 0 
-203.109 -200.897 0 
-206.617 -27.0115 0 
-264.668 -54.6982 0 
-205.38 -32.1741 0 
-221.609 -60.5722 0 
-251.754 -38.038 0 
-185.365 -54.9996 0 
-201.616 88.8037 0 
-202.469 -159.691 0 
-220.832 -41.3472 0 
-234.812 -58.8376 0 
-237.628 -208.046 0 
-250.719 -203.481 0 
-248.804 -188.311 0 
-235.465 -139.86 0 
-237.995 -210.773 0 
-264.372 -126.028 0 
-242.208 -129.577 0 
-226.044 -178.207 0 
-255.629 -164.344 0 
-237.309 -168.837 0 
-191.784 -157.391 0 
-244.122 -18.2902 0 
-249.236 -146.626 0 
-209.648 -170.252 0 
-225.246 22.801 0 
-254.267 -49.2849 0 
-226.253 -1.15826 0 
-216.214 -41.7053 0 
-245.317 -195.021 0 
-187.151 -32.1121 0 
-161.384 -149.038 0 
-236.889 -26.7333 0 
-230.408 2.47418 0 
-217.539 -149.176 0 
-233.498 -6.77925 0 
-232.308 -160.864 0 
-222.598 -151.98 0 
-218.134 5.06042 0 
-151.172 61.588 0 
-224.088 -143.81 0 
-181.295 81.4956 0 
-193.583 -192.053 0 
-222.951 -142.764 0 
-256.205 -124.142 0 
-238.91 -137.138 0 
-261.61 -157.261 0 
-202.554 -33.8732 0 
-188.393 -39.9621 0 
-255.504 -173.149 0 
-294.638 -138.399 0 
-183.06 16.9001 0 
-240.687 -141.426 0 
-239.001 -156.441 0 
-251.247 -159.616 0 
-238.106 -117.775 0 
-235.318 -172.016 0 
-276.437 -166.627 0 
-214.917 -165.142 0 
-249.952 -128.099 0 
-227.758 38.0526 0 
-201.322 -110.561 0 
-197.695 -102.85 0 
-180.143 -24.2651 0 
-176.618 -77.6339 0 
-188.415 -132.246 0 
-181.348 -13.8932 0 
-218.381 -142.691 0 
-227.439 -118.969 0 
-214.935 -105.513 0 
-239.418 -111.731 0 
-240.658 -124.792 0 
-210.948 -163.001 0 
-213.666 -128.436 0 
-251.654 -158.409 0 
-249.113 -150.832 0 
-211.096 -151.707 0 
-220.871 -108.196 0 
-224.818 -105.081 0 
-201.421 20.7513 0 
-184.459 -16.0643 0 
-254.842 -124.925 0 
-262.626 -149.876 0 
-211.26 -148.194 0 
-213.031 -81.0183 0 
-235.921 -94.981 0 
-196.37 -94.4285 0 
-193.138 -95.5871 0 
-217.825 -23.4285 0 
-216.878 -93.2057 0 
-210.294 -131.75 0 
-195.04 -108.12 0 
-247.118 -62.6477 0 
-217.844 -8.2348 0 
-217.86 -81.5617 0 
-185.646 -75.35 0 
-207.647 -82.4418 0 
-191.415 -17.7037 0 
-212.679 -97.9598 0 
-197.702 -105.384 0 
-227.278 -101.156 0 
-208.665 -71.52 0 
-213.073 -81.5972 0 
-233.784 -72.1632 0 
-198.099 -33.2565 0 
-215.97 -102.556 0 
-223.642 -83.5301 0 
-198.561 -60.4229 0 
-212.842 -44.6607 0 
-208.364 -75.0113 0 
-243.415 -255.858 0 
-201.212 -200.172 0 
-233.067 -111.569 0 
-268.791 -104.957 0 
-211.597 -129.057 0 
-161.622 -79.0036 0 
-197.084 -65.413 0 
-245.198 -134.139 0 
-188.31 -115.763 0 
-222.002 -81.6651 0 
-219.744 -68.4568 0 
-219.879 -47.5805 0 
-233.152 -77.9916 0 
-167.185 -75.8556 0 
-242.022 -212.226 0 
-204.521 -59.1516 0 
-235.713 -159.874 0 
-227.03 -173.351 0 
-218.31 -235.497 0 
-232.407 -189.03 0 
-230.35 -181.742 0 
-237.99 -58.1118 0 
-160.856 72.0772 0 
-253.432 -170.143 0 
-176.269 56.9135 0 
-234.955 -69.9652 0 
-180.223 62.1044 0 
-220.59 -69.7403 0 
-230.535 -176.993 0 
-223.949 -176.29 0 
-220.984 -173.109 0 
-223.082 -200.617 0 
-246.517 -73.4555 0 
-206.357 -80.7764 0 
-209.134 -68.8217 0 
-218.537 -200.609 0 
-215.759 -75.9426 0 
-283.605 -218.269 0 
-237.716 -61.6339 0 
-179.695 -48.0409 0 
-192.006 72.3329 0 
-238.527 -166.114 0 
-227.146 -50.1078 0 
-223.471 -8.35772 0 
-261.998 -164.457 0 
-213.832 -188.784 0 
-211.315 -212.16 0 
-224.193 -146.536 0 
-190.928 -211.465 0 
-165.77 -41.6092 0 
-254.068 -170.258 0 
-228.929 -58.6847 0 
-202.772 -212.086 0 
-195.136 -74.6689 0 
-138.158 71.0002 0 
-213.201 -184.441 0 
-257.015 -200.226 0 
-171.783 -159.762 0 
-204.726 -179.485 0 
-227.68 -188.04 0 
-241.873 -214.282 0 
-234.676 -159.748 0 
-239.559 -45.8249 0 
-235.855 -193.985 0 
-195.813 -136.45 0 
-225.329 -149.424 0 
-236.539 -185.464 0 
-211.959 -182.273 0 
-235.736 -191.765 0 
-260.398 -158.884 0 
-240.905 -215.464 0 
-262.511 -27.6375 0 
-240.63 -191.238 0 
-216.643 -66.7164 0 
-225.769 -39.8133 0 
-237.476 -167.291 0 
-205.997 -56.8627 0 
-241.572 -182.593 0 
-249.258 -135.765 0 
-217.203 -164.193 0 
-248.273 -183.737 0 
-244.354 -129.13 0 
-266.503 -210.605 0 
-260.586 -170.568 0 
-253.404 -176.532 0 
-201.09 65.1927 0 
-229.365 -30.0864 0 
-203.256 91.2418 0 
-172.683 99.2293 0 
-193.031 -16.0075 0 
-225.437 -178.424 0 
-232.045 -23.6276 0 
-267.146 -193.158 0 
-196.553 -152.647 0 
-232.893 -19.7241 0 
-178.119 -22.5047 0 
-177.97 -179.151 0 
-269.78 -158.215 0 
-275.865 -194.307 0 
-227.157 -171.502 0 
-225.275 -190.481 0 
-201.154 -147.232 0 
-197.703 5.66417 0 
-254.754 -192.307 0 
-207.727 -18.7309 0 
-239.712 -201.127 0 
-168.851 -168.052 0 
-228.525 -185.657 0 
-218.907 -188.76 0 
-251.942 -162.508 0 
-219.793 -161.802 0 
-229.429 -146.765 0 
-255.531 -148.073 0 
-177.903 -176.497 0 
-256.151 -197.376 0 
-199.616 -20.6353 0 
-224.639 -185.876 0 
-231.87 -150.939 0 
-225.077 9.09647 0 
-196.093 -174.446 0 
-228.055 -2.38521 0 
-190.288 -103.245 0 
-225.36 -125.441 0 
-210.743 -154.119 0 
-243.324 -157.302 0 
-266.466 -143.229 0 
-168.178 -27.4874 0 
-218.829 -158.644 0 
-237.509 -94.6828 0 
-226.966 -113.347 0 
-188.056 4.86937 0 
-223.457 -31.0493 0 
-192.806 -118.628 0 
-209.052 -126.343 0 
-174.204 112.437 0 
-214.269 -134.95 0 
-201.672 -144.244 0 
-212.357 -113.977 0 
-230.053 -143.997 0 
-240.008 -147.947 0 
-218.526 -177.784 0 
-239.331 -140.301 0 
-198.096 -83.0851 0 
-148.933 -49.2254 0 
-206.849 -116.863 0 
-196.911 -115.523 0 
-215.45 -87.7473 0 
-230.314 -127.237 0 
-234.648 -148.932 0 
-236.923 -130.561 0 
-159.595 105.71 0 
-221.795 -126.418 0 
-195.105 -121.913 0 
-244.175 -107.022 0 
-209.794 14.0645 0 
-176.576 -90.1681 0 
-230.372 -168.11 0 
-214.542 -127.634 0 
-223.756 -141.329 0 
-227.432 -120.985 0 
-186.176 14.7935 0 
-231.98 -110.615 0 
-178.245 -136.088 0 
-212.479 -25.6365 0 
-188.489 -2.38362 0 
-197.07 -96.9565 0 
-235.668 -145.31 0 
-237.626 -111.111 0 
-250.773 -105.734 0 
-198.985 -138.331 0 
-230.217 -89.4589 0 
-286.881 -127.349 0 
-204.612 -140.905 0 
-177.639 -130.392 0 
-217.163 -89.1877 0 
-156.271 -97.6224 0 
-216.719 -112.775 0 
-221.527 -115.027 0 
-207.428 -118.861 0 
-206.103 -116.364 0 
-261.274 -119.847 0 
-215.244 -263.959 0 
-209.53 -92.5724 0 
-193.469 -42.5557 0 
-197.282 -75.6861 0 
-196.762 -107.44 0 
-212.748 -88.7833 0 
-211.465 -63.9172 0 
-188.912 -245.371 0 
-250.573 -83.151 0 
-209.588 29.7786 0 
-262.522 -104.479 0 
-261.443 -83.6656 0 
-240.29 -67.0631 0 
-208.327 -95.6121 0 
-182.08 -80.5158 0 
-163.786 25.7799 0 
-231.625 9.57627 0 
-216.374 -70.152 0 
-232.688 -105.347 0 
-173.595 -97.3745 0 
-205.522 -101.534 0 
-224.381 -204.924 0 
-205.45 -83.6876 0 
-205.798 -102.008 0 
-260.076 -250.657 0 
-196.218 -100.227 0 
-217.665 -231.743 0 
-155.605 -83.4641 0 
-215.735 -81.5967 0 
-219.676 34.5009 0 
-200.201 -104.418 0 
-223.839 -76.4936 0 
-251.4 -236.982 0 
-241.084 -111.567 0 
-213.415 -250.337 0 
-189.415 -91.1694 0 
-216.625 -35.7051 0 
-221.974 -61.455 0 
-180.423 -93.0994 0 
-228.288 -71.9068 0 
-191.829 -54.8188 0 
-179.156 -69.7567 0 
-184.178 -110.544 0 
-202.034 -234 0 
-216.05 -201.672 0 
-176.332 -170.095 0 
-210.93 -212.924 0 
-235.729 -72.8911 0 
-194.935 -52.3653 0 
-204.761 -118.631 0 
-209.805 -101.371 0 
-193.344 -183.797 0 
-211.457 -210.271 0 
-200.701 -86.2848 0 
-241.632 -57.5747 0 
-270.566 -225.81 0 
-176.836 -229.614 0 
-225.671 -193.45 0 
-220.09 -200.396 0 
-210.045 -74.3107 0 
-171.45 -57.2144 0 
-224.831 -44.6223 0 
-255.658 -17.2279 0 
-184.852 -113.401 0 
-218.094 -55.6029 0 
-211.792 -172.899 0 
-201.68 -184.856 0 
-201.029 -84.1038 0 
-209.277 -76.733 0 
-208.055 -92.5569 0 
-181.865 -102.77 0 
-234.057 -208.794 0 
-243.539 -219.141 0 
-243.63 -201.048 0 
-199.239 -55.8923 0 
-145.405 79.4303 0 
-263.346 -88.4577 0 
-189.402 -197.441 0 
-243.511 -202.001 0 
-228.08 -217.321 0 
-237.437 -61.6207 0 
-177.455 -38.3074 0 
-233.002 -49.8956 0 
-201.485 -76.7117 0 
-225.913 -90.7394 0 
-223.334 -199.242 0 
-195.955 -206.319 0 
-215.657 -211.096 0 
-228.706 -56.2293 0 
-210.101 -48.4416 0 
-234.996 -57.68 0 
-216.965 -165.655 0 
-207.47 -193.974 0 
-246.942 -155.354 0 
-220.334 -205.278 0 
-241.64 -153.282 0 
-219.904 -194.087 0 
-253.384 -200.195 0 
-202.646 -149.024 0 
-188.578 -61.6082 0 
-269.421 -195.611 0 
-227.888 -60.9777 0 
-233.629 -184.269 0 
-246.2 -181.81 0 
-233.624 -73.1731 0 
-221.26 -174.34 0 
-224.837 -147.538 0 
-209.514 11.1469 0 
-224.868 -184.997 0 
-228.781 -181.046 0 
-217.368 -73.4391 0 
-228.391 -71.3704 0 
-253.8 -167.499 0 
-196.923 -142.31 0 
-247.822 -186.424 0 
-199.238 51.4029 0 
-149.269 -58.4841 0 
-218.805 -7.83507 0 
-229.187 -160.882 0 
-231.444 -162.728 0 
-238.749 -169.387 0 
-198.87 -190.779 0 
-194.637 -0.873618 0 
-255.931 -214.827 0 
-213.583 11.0375 0 
-242.149 -160.17 0 
-202.794 -43.2096 0 
-229.421 -25.487 0 
-234.383 4.91906 0 
-198.325 -34.841 0 
-218.888 -21.9139 0 
-266.201 -181.211 0 
-231.681 5.16701 0 
-133.461 45.828 0 
-264.62 -157.83 0 
-257.159 -172.022 0 
-234.295 -46.6081 0 
-229.012 -199.424 0 
-226.591 -159.831 0 
-229.828 -149.352 0 
-224.157 -134.767 0 
-214.686 -152.464 0 
-236.642 -188.002 0 
-213.32 -181.761 0 
-202.934 -122.637 0 
-221.485 -193.793 0 
-192.432 -186.705 0 
-216.326 -2.46373 0 
-254.442 -180.503 0 
-189.014 -172.261 0 
-223.323 -192.033 0 
-278.072 -195.416 0 
-233.364 -215.048 0 
-219.449 -190.689 0 
-223.242 -188.199 0 
-226.016 -121.565 0 
-213.687 -164.381 0 
-208.287 -181.975 0 
-177.697 -147.299 0 
-231.003 -127.799 0 
-159.43 79.2353 0 
-274.957 -171.178 0 
-267.495 -174.647 0 
-194.589 -157.327 0 
-181.658 -133.099 0 
-195.229 -175.882 0 
-204.66 -128.805 0 
-253.801 -156.758 0 
-211.494 -141.427 0 
-253.896 -143.369 0 
-233.681 -162.164 0 
-178.521 -9.15888 0 
-192.577 -181.07 0 
-192.871 -38.0012 0 
-207.977 -179.911 0 
-184.968 -152.931 0 
-164.271 -49.9226 0 
-221.543 -123.843 0 
-205.869 -154.566 0 
-269.739 -176.984 0 
-212.352 -171.419 0 
-251.481 -161.595 0 
-225.656 -162.581 0 
-261.394 -143.376 0 
-248.041 -143.859 0 
-258.793 -145.607 0 
-215.929 -142.082 0 
-194.227 -131.974 0 
-213.872 -133.172 0 
-207.741 -140.107 0 
-202.015 -151.928 0 
-248.49 -103.675 0 
-255.813 -119.891 0 
-212.015 -136.496 0 
-178.054 -3.11653 0 
-255.194 -145.287 0 
-218.237 -148.179 0 
-183.57 112.426 0 
-208.067 -119.2 0 
-221.388 -118.234 0 
-235.049 -119.773 0 
-216.446 -125.065 0 
-189.333 -162.64 0 
-208.433 -115.595 0 
-220.142 -164.02 0 
-273.853 -110.239 0 
-224.858 -134.471 0 
-216.523 -174.024 0 
-192.579 -157.886 0 
-187.395 -153.521 0 
-189.932 -142.908 0 
-217.33 -114.501 0 
-170.515 29.1367 0 
-229.298 -138.442 0 
-181.251 -139.772 0 
-227.271 -128.333 0 
-178.65 -0.397743 0 
-180.259 119.282 0 
-241.811 -141.393 0 
-179.044 -137.269 0 
-238.296 -140.489 0 
-221.625 -120.071 0 
-192.708 -144.365 0 
-209.124 -111.172 0 
-148.78 -85.6956 0 
-212.651 -152.449 0 
-243.821 -107.393 0 
-176.073 -145.811 0 
-231.001 -112.802 0 
-230.273 -133.296 0 
-189.927 38.4653 0 
-179.644 22.8924 0 
-247.3 -163.178 0 
-230.962 -121.975 0 
-223.168 -141.465 0 
-238.499 -159.629 0 
-242.318 -123.637 0 
-223.766 -142.655 0 
-222.75 -129.44 0 
-220.263 -133.5 0 
-180.216 -134.088 0 
-218.069 -235.904 0 
-280.37 -129.323 0 
-188.056 -113.468 0 
-233.847 -229.717 0 
-227.58 -129.645 0 
-228.242 -112.514 0 
-226.174 -103.762 0 
-236.83 -101.119 0 
-269.111 -138.624 0 
-196.853 -22.0417 0 
-215.914 -130.009 0 
-232.869 -108.16 0 
-177.584 8.73213 0 
-241.14 -106.319 0 
-220.801 -131.761 0 
-206.492 -133.927 0 
-234.611 -127.184 0 
-237.838 -135.717 0 
-208.253 -106.037 0 
-259.379 -228.233 0 
-259.082 -99.5855 0 
-182.271 -144.554 0 
-229.895 -125.715 0 
-204.456 -14.1622 0 
-239.173 -142.454 0 
-208.449 -95.9861 0 
-239.206 -149.306 0 
-282.759 -115.232 0 
-165.817 -77.1568 0 
-206.899 -106.703 0 
-184.661 27.7496 0 
-206.365 -107.618 0 
-238.384 -86.8432 0 
-258.65 -76.6021 0 
-232.242 -219.423 0 
-152.452 36.3276 0 
-224.882 -106.305 0 
-258.089 -74.2976 0 
-243.523 -134.841 0 
-238.766 -123.707 0 
-213.127 -127.974 0 
-212.847 -207.253 0 
-229.41 -106.384 0 
-223.637 -93.8296 0 
-231.97 -119.568 0 
-188.007 -86.9535 0 
-203.844 -101.374 0 
-218.795 -53.0524 0 
-224.955 -72.417 0 
-241.225 -70.9508 0 
-212.854 -66.8013 0 
-236.798 -55.9592 0 
-211.326 -212.374 0 
-266.821 -234.534 0 
-249.293 -92.6036 0 
-247.519 -282.764 0 
-216.435 -89.0631 0 
-212.1 -51.0856 0 
-202.339 -52.0726 0 
-140.298 55.2845 0 
-217.063 -93.3576 0 
-223.195 -200.788 0 
-233.794 -216.021 0 
-239.669 -58.5281 0 
-235.36 -203.336 0 
-213.737 -127.013 0 
-195.497 -70.0067 0 
-227.92 -220.312 0 
-192.033 -238.118 0 
-211.388 -33.2583 0 
-219.308 -219.563 0 
-186.95 -110.788 0 
-236.179 -177.797 0 
-152.565 -88.9134 0 
-239.839 -112.416 0 
-161.867 -77.9544 0 
-142.78 -65.3371 0 
-181.033 -57.7058 0 
-216.847 -232.773 0 
-213.347 -84.8761 0 
-207.415 -96.4347 0 
-174.925 -106.206 0 
-240.631 -91.1391 0 
-227.989 -76.7488 0 
-164.342 -240.887 0 
-198.688 -108.319 0 
-201.706 -186.316 0 
-198.506 -147.666 0 
-138.776 -228.837 0 
-259.299 -67.5323 0 
-179.044 -200.32 0 
-230.889 -190.801 0 
-214.688 -65.1842 0 
-202.369 -83.3057 0 
-192.639 -240.718 0 
-186.148 -231.751 0 
-206.777 83.4819 0 
-192.108 -75.4591 0 
-209.767 -181.212 0 
-189.306 -104.969 0 
-208.136 -232.826 0 
-218.2 -84.3885 0 
-225.041 -61.2325 0 
-204.593 -50.8275 0 
-226.787 -108.335 0 
-191.626 -229.551 0 
-225.544 -210.296 0 
-235.563 -205.001 0 
-230.594 -188.558 0 
-227.165 -204.545 0 
-247.417 -225.995 0 
-200.236 -212.699 0 
-224.777 -175.316 0 
-214.695 -47.1256 0 
-205.717 -224.52 0 
-168.256 -106.891 0 
-180.999 -202.369 0 
-201.674 -210.151 0 
-244.079 -91.2372 0 
-151.758 69.0829 0 
-226.567 -182.79 0 
-135.61 -62.3782 0 
-164.3 -41.0823 0 
-232.691 -168.9 0 
-185.649 -69.8534 0 
-216.418 -74.1768 0 
-189.64 -71.6449 0 
-160.24 -209.435 0 
-188.865 -61.9447 0 
-241.269 -59.3778 0 
-242.749 -102.968 0 
-187.669 -71.8181 0 
-207.14 -204.391 0 
-147.418 23.5929 0 
-191.714 -198.391 0 
-207.531 -169.252 0 
-197.752 -220.942 0 
-170.332 -70.2652 0 
-228.886 -205.878 0 
-256.47 -186.628 0 
-164.993 -55.949 0 
-172.662 -196.346 0 
-220.219 -44.4892 0 
-200.479 -87.2847 0 
-193.386 -219.304 0 
-189.111 -28.4096 0 
-182.249 -203.055 0 
-217.593 -113.283 0 
-252.836 -106.894 0 
-227.528 -106.591 0 
-195.663 -210.62 0 
-207.136 -199.84 0 
-219.789 -69.7026 0 
-237.178 -91.8192 0 
-181.738 -221.642 0 
-195.518 -203.182 0 
-220.862 -61.3161 0 
-150.382 -50.9873 0 
-232.364 -79.7219 0 
-188.552 -192.012 0 
-213.528 -201.198 0 
-208.853 -155.839 0 
-207.554 -184.961 0 
-232.653 -183.383 0 
-234.894 -209.424 0 
-190.846 -215.532 0 
-232.604 -177.962 0 
-176.408 -198.869 0 
-219.267 -189.928 0 
-207.078 -74.9184 0 
-233.298 -57.1246 0 
-191.079 -183.762 0 
-269.481 -194.256 0 
-180.299 -189.944 0 
-175.201 -63.4494 0 
-224.97 -177.328 0 
-205.853 -191.758 0 
-207.103 -45.6591 0 
-228.603 -195.357 0 
-203.902 -191.663 0 
-239.788 -182.731 0 
-173.753 -57.0785 0 
-225.233 -49.551 0 
-219.478 -59.9735 0 
-175.496 -70.8604 0 
-228.176 -206.043 0 
-202.714 -67.8159 0 
-204.688 -202.693 0 
-217.219 -183.905 0 
-248.303 -185.728 0 
-220.352 -124.094 0 
-248.289 -167.064 0 
-218.869 -152.87 0 
-262.581 -190.803 0 
-187.765 -221.266 0 
-250.94 -154.851 0 
-170.063 -200.999 0 
-223.506 -29.2079 0 
-211.293 -172.875 0 
-187.86 -181.513 0 
-212.423 -59.2969 0 
-250.231 -201.808 0 
-255.986 -158.507 0 
-225.108 -201.311 0 
-219.23 -160.942 0 
-214.523 -156.961 0 
-173.264 -58.8703 0 
-196.891 -173.562 0 
-208.736 -74.3373 0 
-217.207 -166.752 0 
-229.359 -53.7431 0 
-245.856 -197.068 0 
-169.883 -190.252 0 
-223.581 -191.34 0 
-164.139 -162.454 0 
-155.15 -187.599 0 
-198.783 -180.269 0 
-221.238 -149.399 0 
-184.231 -185.758 0 
-174.841 -172.138 0 
-250.402 -158.883 0 
-219.646 -163.85 0 
-213.974 -42.3146 0 
-172.368 -168.91 0 
-191.804 -61.4409 0 
-209.06 -169.641 0 
-214.557 -136.681 0 
-181.675 46.939 0 
-216.096 -8.3826 0 