<VTKFile type="UnstructuredGrid" version="0.1" byte_order="BigEndian">
  <UnstructuredGrid>
        <Piece NumberOfPoints="8000" NumberOfCells="0" Time= "0.015">      <Points>
        <DataArray name="Position" type="Float32"  NumberOfComponents= "3"  format="ascii">

114.905 16.3532 0 
114.922 15.7616 0 
114.903 15.5971 0 
114.918 15.6428 0 
114.906 16.598 0 
114.905 15.4267 0 
114.929 17.0091 0 
114.907 16.4026 0 
114.929 16.6483 0 
114.924 17.4598 0 
114.922 17.8149 0 
116.632 14.9214 0 
116.859 14.8936 0 
115.636 14.8908 0 
115.265 14.9136 0 
116.553 14.9227 0 
117.282 16.3732 0 
116.204 16.7939 0 
116.356 16.5068 0 
116.722 15.9875 0 
115.163 16.458 0 
116.593 15.6178 0 
116.584 15.0004 0 
115.762 16.128 0 
116.187 16.1838 0 
116.219 17.0992 0 
117.131 15.8054 0 
115.897 15.502 0 
116.158 16.8801 0 
116.8 16.1237 0 
116.546 15.4265 0 
115.178 16.7037 0 
115.376 16.4145 0 
116.111 15.1 0 
116.699 17.1838 0 
116.345 16.4904 0 
116.572 17.1235 0 
116.491 15.4135 0 
117.288 15.8852 0 
116.253 15.7131 0 
116.346 16.4184 0 
116.288 16.57 0 
116.183 15.1636 0 
116.779 15.5025 0 
117.131 15.2955 0 
116.215 16.5246 0 
117.005 15.648 0 
115.149 16.8715 0 
116.731 16.9929 0 
115.276 16.6577 0 
115.853 16.7 0 
115.108 17.1602 0 
116.47 16.8126 0 
115.043 14.9852 0 
116.609 16.0408 0 
117.428 15.9576 0 
116.548 15.4616 0 
114.95 16.7719 0 
117.323 16.4053 0 
117.255 17.2839 0 
115.865 15.3893 0 
116.073 16.4205 0 
115.94 15.7476 0 
116.884 16.048 0 
116.506 17.1963 0 
116.528 15.0539 0 
116.912 16.3673 0 
116.663 15.8084 0 
115.938 15.1082 0 
116.179 16.6579 0 
115.855 15.6518 0 
117.418 16.4024 0 
116.638 16.1209 0 
115.093 15.3625 0 
116.177 16.6155 0 
115.809 15.493 0 
115.295 16.3186 0 
115.089 16.8514 0 
116.679 17.4092 0 
116.106 17.3584 0 
117.108 15.4267 0 
116.671 16.942 0 
116.834 16.7969 0 
115.942 16.4898 0 
115.588 16.6212 0 
115.163 15.4894 0 
117.423 15.5811 0 
116.656 15.866 0 
115.164 16.9167 0 
117.041 16.9546 0 
117.212 15.6344 0 
116.56 15.3972 0 
116.014 16.5081 0 
115.076 16.3761 0 
116.599 15.9944 0 
116.884 16.2788 0 
117.384 15.5442 0 
116.599 15.5492 0 
116.555 14.9671 0 
116.299 16.4512 0 
116.63 15.7875 0 
115.092 15.6593 0 
116.236 16.4924 0 
115.977 15.001 0 
116.558 15.1476 0 
116.198 16.9959 0 
116.139 16.5232 0 
116.282 17.2758 0 
117.369 15.4803 0 
116.751 15.9666 0 
116.33 16.7722 0 
116.889 16.1588 0 
117.191 15.1138 0 
116.283 16.9911 0 
117.112 15.6874 0 
115.754 17.0527 0 
117.106 16.7335 0 
115.983 17.3025 0 
116.944 14.9466 0 
116.354 15.3858 0 
117.407 15.1239 0 
114.97 16.9298 0 
115.081 15.1968 0 
117.411 16.4548 0 
115.953 16.6669 0 
115.752 16.1161 0 
117.214 16.3796 0 
115.104 15.7322 0 
115.587 15.009 0 
115.912 16.7205 0 
115.477 15.0524 0 
116.277 15.2681 0 
117.142 17.3063 0 
115.975 16.1449 0 
115.818 16.4396 0 
117.101 16.7631 0 
117.211 15.4069 0 
117.26 15.4085 0 
116.679 15.8098 0 
116.723 15.9324 0 
115.038 15.4362 0 
115.745 15.0489 0 
116.503 15.8499 0 
116.141 16.318 0 
117.33 15.6178 0 
116.642 15.1413 0 
116.125 16.1138 0 
115.867 16.9786 0 
114.962 15.7084 0 
115.315 15.3281 0 
116.49 15.9961 0 
116.709 15.7111 0 
116.076 14.9985 0 
117.414 15.1314 0 
115.406 15.726 0 
116.384 16.6968 0 
116.613 16.9477 0 
117.008 16.473 0 
116.852 17.0266 0 
116.741 16.3851 0 
116.96 16.8795 0 
116.209 17.1964 0 
117.125 15.1892 0 
116.049 16.1499 0 
114.976 15.2236 0 
117.159 15.1826 0 
116.552 15.1199 0 
115.87 15.3893 0 
117.036 15.9139 0 
116.125 16.7667 0 
115.85 16.8519 0 
116.049 15.4638 0 
117.048 15.5935 0 
115.083 17.0639 0 
116.386 16.4467 0 
116.847 15.749 0 
115.986 17.1926 0 
114.969 17.095 0 
117.195 17.2368 0 
116.48 17.3083 0 
115.98 15.2696 0 
114.939 14.9785 0 
116.192 17.2064 0 
117.085 17.1724 0 
117.205 15.7971 0 
115.396 16.4998 0 
114.958 17.428 0 
116.82 15.7499 0 
116.538 17.3318 0 
116.347 16.4069 0 
117.143 17.2014 0 
117.14 15.054 0 
115.613 17.2411 0 
116.901 16.1688 0 
115.207 16.6084 0 
116.569 16.1779 0 
117.303 16.8642 0 
117.359 15.5311 0 
115.445 17.0567 0 
117.059 17.0979 0 
117.03 16.3498 0 
115.962 16.4802 0 
116.384 16.0671 0 
115.038 15.0534 0 
114.986 17.2903 0 
117.057 15.8378 0 
116.577 16.8556 0 
115.657 14.949 0 
115.775 15.3313 0 
117.35 16.3654 0 
114.984 15.1938 0 
115.742 15.2597 0 
115.81 16.6855 0 
115.615 17.0744 0 
116.796 17.1917 0 
117.148 16.0678 0 
116.691 15.8687 0 
115.939 16.4929 0 
117.264 15.2392 0 
115.248 16.3932 0 
115.607 17.362 0 
115.818 16.9549 0 
116.064 16.594 0 
116.772 14.9795 0 
117.111 16.6266 0 
115.991 17.0102 0 
116.547 17.3349 0 
116.822 15.9656 0 
115.886 15.5714 0 
116.579 16.1436 0 
116.546 15.2294 0 
116.296 16.3109 0 
117.234 14.9665 0 
116.052 15.5596 0 
116.93 16.4078 0 
115.842 17.3484 0 
115.719 16.6699 0 
116.982 17.0467 0 
116.745 16.8205 0 
115.326 15.6924 0 
116.826 15.2373 0 
115.409 16.6008 0 
117.329 17.1388 0 
116.578 15.054 0 
116.075 17.159 0 
115.064 16.2102 0 
116.537 16.195 0 
115.611 16.8826 0 
116.584 16.9929 0 
117.125 17.2774 0 
115.798 14.9385 0 
115.168 17.0167 0 
116.472 16.812 0 
115.938 16.7358 0 
116.316 16.442 0 
117.356 16.3413 0 
117.131 16.3742 0 
115.09 15.818 0 
116.653 15.7313 0 
116.034 15.4026 0 
116.191 17.2796 0 
116.104 15.6754 0 
116.531 17.2026 0 
115.216 15.077 0 
116.247 17.0144 0 
116.835 16.238 0 
117.079 16.4754 0 
115.451 16.4308 0 
116.333 16.4463 0 
115.696 14.9784 0 
116.644 16.9756 0 
117.213 17.0074 0 
115.292 16.9016 0 
117.155 16.5469 0 
117.274 15.3803 0 
115.657 15.104 0 
116.781 16.3332 0 
116.589 15.3702 0 
116.028 14.975 0 
116.989 16.7835 0 
116.041 16.8115 0 
114.997 16.2733 0 
115.01 16.2054 0 
116.69 15.3085 0 
115.042 16.5955 0 
117.258 15.3441 0 
115.357 15.5205 0 
116.074 17.1784 0 
117.27 15.4752 0 
117.332 15.4984 0 
116.559 15.9776 0 
115.367 16.6484 0 
116.034 17.2811 0 
116.679 17.3259 0 
115.893 16.6393 0 
115.844 15.2847 0 
117.22 16.3591 0 
116.235 16.6009 0 
115.031 15.1902 0 
116.739 15.4491 0 
115.216 15.7977 0 
116.941 16.4514 0 
116.608 16.3397 0 
117.126 15.3373 0 
116.132 17.2287 0 
117.053 16.624 0 
115.801 16.7923 0 
116.942 17.0552 0 
116.462 16.165 0 
116.236 15.5411 0 
115.09 16.3976 0 
116.549 15.48 0 
116.053 15.5611 0 
115.885 15.8231 0 
117.002 15.3107 0 
116.758 16.8656 0 
116.841 16.5159 0 
115.893 15.1835 0 
116.219 16.1084 0 
115.907 17.0597 0 
116.536 15.4028 0 
116.282 15.2785 0 
115.644 17.0398 0 
115.113 15.7529 0 
116.028 16.6296 0 
117.041 16.4391 0 
117.429 17.1181 0 
115.818 16.648 0 
117.032 15.0804 0 
116.687 16.4326 0 
116.065 15.4677 0 
115.24 17.0788 0 
117.436 16.3519 0 
116.059 16.3319 0 
116.244 17.176 0 
116.694 16.8934 0 
116.584 16.146 0 
115.789 15.4145 0 
116.484 16.6306 0 
116.052 16.4014 0 
115.597 17.0385 0 
117.203 17.0317 0 
116.585 15.1899 0 
116.259 16.7207 0 
116.91 16.4923 0 
115.829 15.6934 0 
117.327 15.3298 0 
117.312 16.3473 0 
115.509 16.65 0 
116.57 15.8864 0 
115.972 15.0327 0 
116.116 15.7952 0 
116.704 16.1643 0 
116.99 16.7614 0 
115.926 16.9024 0 
115.594 17.2474 0 
115.021 16.1507 0 
117.406 16.2837 0 
116.543 17.0176 0 
116.225 15.3565 0 
117.287 15.7275 0 
116.503 15.8309 0 
116.516 16.0597 0 
116.832 15.9017 0 
116.042 16.8147 0 
116.246 16.1166 0 
116.707 16.3922 0 
117.063 17.2105 0 
116.648 16.9739 0 
117.294 15.809 0 
116.92 16.4998 0 
115.098 16.2727 0 
116.593 17.0114 0 
116.772 16.9718 0 
116.534 15.1026 0 
116.294 16.2631 0 
116.196 16.1074 0 
116.681 15.3243 0 
115.005 17.4204 0 
117.22 15.0036 0 
116.566 14.9476 0 
116.835 15.6063 0 
115.419 15.727 0 
116.328 16.4408 0 
116.779 16.2261 0 
116.194 16.5767 0 
116.543 17.3589 0 
115.369 15.7464 0 
117.046 16.4834 0 
116.872 17.4273 0 
116.285 17.1648 0 
115.758 17.0143 0 
116.282 16.2226 0 
116.885 16.757 0 
114.984 16.1545 0 
117.072 16.4327 0 
117.349 15.872 0 
115.974 17.0782 0 
115.18 16.2743 0 
116.033 16.4316 0 
116.741 17.0663 0 
116.309 15.2102 0 
116.107 15.1704 0 
116.398 16.7107 0 
116.536 15.0324 0 
117.185 15.8809 0 
115.329 15.6726 0 
117.233 17.2254 0 
116.03 15.4406 0 
117.314 14.98 0 
115.473 16.7753 0 
116.298 16.9266 0 
115.41 16.1714 0 
116.426 15.1389 0 
115.946 17.1022 0 
117.071 15.2887 0 
115.868 17.2027 0 
115.255 15.3458 0 
117.174 17.3246 0 
115.455 15.5836 0 
116.912 15.7836 0 
116.723 16.8783 0 
114.977 17.3073 0 
116.568 15.0566 0 
115.99 17.1187 0 
117.027 15.6432 0 
115.862 17.1299 0 
117.216 16.8232 0 
116.677 15.6607 0 
116.639 16.4004 0 
115.495 17.3486 0 
116.319 16.1982 0 
115.666 16.662 0 
116.571 15.0984 0 
116.818 16.354 0 
116.382 16.3523 0 
116.54 15.6032 0 
117.283 15.5584 0 
116.909 17.193 0 
115.097 15.1779 0 
117.321 16.7235 0 
116.292 17.3179 0 
117.427 16.7965 0 
116.161 16.4184 0 
115.064 15.7997 0 
116.573 15.7481 0 
116.884 16.9802 0 
115.39 15.5199 0 
115.76 17.2323 0 
116.217 16.9883 0 
116.829 15.9055 0 
117.062 16.5295 0 
116.504 16.2868 0 
115.079 16.2364 0 
117.266 14.9875 0 
115.975 15.8137 0 
115.685 16.924 0 
116.388 16.3257 0 
115.427 15.1597 0 
117.147 17.1427 0 
116.579 17.0991 0 
116.025 17.3231 0 
117.213 15.2986 0 
117.42 15.9823 0 
116.071 16.4385 0 
116.115 16.9034 0 
116.159 16.0889 0 
115.182 15.8119 0 
115.768 15.5808 0 
114.975 16.0657 0 
116.93 15.4037 0 
116.661 16.844 0 
115.804 17.0813 0 
116.419 16.1865 0 
116.939 17.2261 0 
116.591 15.1242 0 
115.078 15.8206 0 
115.677 16.9851 0 
115.147 17.1546 0 
114.975 16.5177 0 
116.543 16.156 0 
115.784 16.1259 0 
117.104 15.6806 0 
116.608 15.5864 0 
115.382 15.8166 0 
117.14 15.8797 0 
117.093 14.993 0 
116.071 17.2973 0 
116.746 15.4506 0 
116.59 15.4987 0 
115.874 17.3141 0 
116.938 15.4912 0 
116.962 16.3554 0 
115.2 16.5607 0 
115.485 17.0949 0 
116.158 17.326 0 
116.047 17.1056 0 
116.628 15.8324 0 
115.18 16.5796 0 
117.427 15.4523 0 
117.29 17.3524 0 
116.376 16.3671 0 
115.691 17.0856 0 
116.015 15.78 0 
116.032 15.5898 0 
116.522 15.0914 0 
115.022 15.1886 0 
115.068 16.9311 0 
116.913 17.2036 0 
116.361 16.378 0 
116.712 16.8226 0 
116.246 15.5531 0 
115.749 17.2812 0 
115.471 16.6179 0 
116.934 15.6908 0 
115.516 17.0238 0 
115.206 16.742 0 
117.33 16.6712 0 
[...]
      <PointData Vectors="vector">
        <DataArray type="Float32" Name="Velocity" NumberOfComponents="3" format="ascii">

-14.9918 -14.992 0 
-15 10.5198 0 
-14.9855 -14.9918 0 
-14.9243 -10.2509 0 
-15 -15 0 
-15 -15 0 
-14.9896 -14.9592 0 
-15 -15 0 
-15 -15 0 
-14.8316 -14.6728 0 
-12.4925 -15 0 
-14.99 -14.9405 0 
-14.9836 -14.9861 0 
-14.9865 -14.9657 0 
-9.02577 -15 0 
-15 -15 0 
-15 15 0 
-14.9932 -14.9636 0 
-15 15 0 
-14.9869 -14.9753 0 
-15 15 0 
-15 10.3149 0 
-14.6837 -14.5342 0 
-15 10.2353 0 
-15 -15 0 
-15 10.3794 0 
-15 -15 0 
-14.9627 -14.984 0 
-14.9623 -14.989 0 
-14.9669 -14.9851 0 
-14.9654 -14.9867 0 
-14.9761 14.9878 0 
-14.9349 -14.9991 0 
-14.9773 14.9876 0 
7.84358 -14.9695 0 
-14.8425 -14.9201 0 
-6.97087 -15 0 
13.7252 -15 0 
-3.89938 -14.9059 0 
-14.8103 -14.9148 0 
-13.4288 -15 0 
-14.9807 -14.9544 0 
6.32394 -15 0 
-14.8451 -14.9249 0 
-14.9104 -14.9494 0 
-12.066 -15 0 
-8.2714 -15 0 
-13.5582 -15 0 
-8.41938 -14.9758 0 
-14.9431 -14.952 0 
10.3735 -15 0 
-14.9162 -14.9474 0 
-14.9416 -14.9429 0 
14.5013 -14.9441 0 
-14.993 -9.9984 0 
-11.9282 -14.8675 0 
11.1522 11.061 0 
-14.9059 -6.47044 0 
-15 15 0 
9.8943 -14.1708 0 
-9.94044 -14.9556 0 
15 15 0 
15 15 0 
-11.5762 -14.9296 0 
-14.9912 -14.9695 0 
15 -15 0 
-14.3258 -14.8135 0 
-14.8763 -9.70152 0 
-8.19013 -10.255 0 
-11.2627 -10.5214 0 
-14.9467 15 0 
-5.29761 -15 0 
-14.9797 -9.99466 0 
-14.974 -7.12773 0 
11.5732 11.5784 0 
-0.709781 -14.8656 0 
14.6787 -14.7852 0 
-14.9993 12.8912 0 
-14.9884 -14.9414 0 
15 -15 0 
-6.6505 -8.71004 0 
4.97038 2.01042 0 
6.38342 -15 0 
-14.8419 14.8501 0 
-14.8763 -14.8279 0 
-0.137434 -3.18076 0 
-14.9378 -14.9845 0 
-12.3218 -14.9288 0 
-14.9875 -10.0089 0 
-7.8856 -13.7765 0 
-0.00442053 -14.8038 0 
-14.989 -14.9217 0 
-10.1088 -14.8798 0 
10.3717 -13.4322 0 
-14.9895 -14.9246 0 
-9.38712 -9.57804 0 
15 -15 0 
-14.9903 -9.99786 0 
-14.9987 -14.9936 0 
15 -15 0 
14.9856 15 0 
15 -15 0 
-14.968 -11.4065 0 
-14.8986 -14.281 0 
14.9694 -14.9482 0 
-14.9991 11.1233 0 
-14.9396 7.7319 0 
15 -15 0 
-13.5493 -14.899 0 
15 -15 0 
-14.9842 -9.99606 0 
-14.9261 -7.23522 0 
-15 -15 0 
10.9698 7.36415 0 
15 -15 0 
-15 15 0 
-10.0409 -14.9105 0 
-14.9176 -13.5951 0 
6.88293 -15 0 
-14.9135 -14.9166 0 
-14.9887 0.633395 0 
-14.9862 -10.0049 0 
14.9752 14.9852 0 
-6.34907 -3.9364 0 
-15 -15 0 
-14.9982 -11.9329 0 
-14.9436 -7.22679 0 
-14.9962 -14.9744 0 
-14.3583 -14.9722 0 
-14.9979 -14.9861 0 
-14.9288 -14.9239 0 
-14.9972 -14.9877 0 
-2.52931 -12.8483 0 
14.9731 14.7999 0 
-15 15 0 
10.9856 -12.7462 0 
-14.9973 -0.987092 0 
-14.9986 -7.95204 0 
-14.8243 3.07061 0 
14.9121 14.9896 0 
-14.755 -6.0667 0 
-15 -15 0 
-4.68627 -9.56133 0 
-11.2798 -15 0 
13.1983 -14.7932 0 
-1.92422 -14.7809 0 
14.9771 14.6103 0 
-0.245326 -15 0 
-14.9994 10.8506 0 
-14.9092 11.4186 0 
-9.9811 -14.9569 0 
-14.967 -6.13136 0 
-14.8929 -14.9418 0 
-14.8118 -14.7787 0 
-14.9959 -14.9856 0 
15 -14.9191 0 
-14.9433 -9.86597 0 
13.8172 -15 0 
15 -15 0 
-14.9696 -14.9428 0 
-15 -15 0 
-14.982 -9.99605 0 
9.33998 6.3016 0 
15 15 0 
-14.9958 5.81535 0 
-15 -15 0 
1.49013 -15 0 
-0.0114586 -14.8351 0 
-7.18127 -15 0 
15 -15 0 
-14.9984 -14.9935 0 
15 15 0 
14.9829 15 0 
-14.9115 -9.79369 0 
-14.9569 -14.246 0 
-14.9805 -12.7021 0 
-14.9314 13.5855 0 
-14.9196 5.62614 0 
-15 -15 0 
3.78824 -15 0 
14.87 -2.53302 0 
14.9997 15 0 
-14.9977 -14.9872 0 
-14.8616 -11.9831 0 
15 15 0 
3.50799 -14.8959 0 
-15 -15 0 
15 4.33317 0 
-14.9059 14.9665 0 
-14.9724 -14.9474 0 
-15 -15 0 
-10.8912 -14.8914 0 
-14.9915 -2.82649 0 
-14.9981 8.55612 0 
-14.9412 -9.97853 0 
-14.9859 -14.6672 0 
-14.9506 -9.95449 0 
0.67546 -15 0 
-14.8942 -14.9331 0 
15 15 0 
-14.8855 -14.9264 0 
-9.63604 -14.4306 0 
15 -15 0 
-14.9828 -14.9543 0 
-10.5181 -14.8738 0 
0.225407 -14.8974 0 
15 -15 0 
-14.9401 -14.9861 0 
-14.9834 -9.99555 0 
-14.993 -14.9444 0 
-12.179 -13.1603 0 
-14.8844 13.0083 0 
14.9142 -15 0 
-14.9989 -14.9955 0 
-14.6939 -14.3774 0 
15 -15 0 
1.14478 -15 0 
-14.9493 -14.9459 0 
-14.992 -14.9671 0 
-14.7698 15 0 
-14.8982 13.8642 0 
-14.9643 -11.678 0 
-4.80287 -6.94841 0 
-14.9991 -14.9966 0 
-14.9163 -14.9573 0 
15 -14.8781 0 
-14.9686 -4.87746 0 
-13.7845 4.26197 0 
4.32752 -14.2884 0 
-14.9157 -14.8705 0 
-14.9986 -10.6915 0 
15 -14.9398 0 
-14.8852 -14.89 0 
-14.9986 14.6534 0 
14.9772 15 0 
15 14.9445 0 
-2.31273 -15 0 
-14.9891 -14.9682 0 
-0.657855 -14.5828 0 
15 -15 0 
-14.9902 -9.99755 0 
15 -15 0 
9.4133 5.67933 0 
15 -14.9239 0 
-14.9282 -14.9503 0 
-14.9921 -14.9853 0 
-14.9417 14.5614 0 
14.9726 14.971 0 
-14.9275 -13.6524 0 
-14.9962 -14.9894 0 
-15 15 0 
15 -14.9355 0 
3.12202 -14.9053 0 
4.48351 -9.99948 0 
-14.9946 -9.99947 0 
1.37664 -14.8429 0 
3.09228 -14.9008 0 
-14.8907 -10.5419 0 
15 -15 0 
-10.8674 -11.9571 0 
-0.876252 -13.7309 0 
15 14.9847 0 
15 -15 0 
-14.999 14.6337 0 
-14.9987 -14.9955 0 
14.1829 -15 0 
7.19954 2.46142 0 
-14.9137 -14.9199 0 
-14.9794 -10.0125 0 
-15 -15 0 
8.76414 -15 0 
-14.8357 11.1758 0 
-8.13836 -3.24725 0 
-14.9992 -14.9971 0 
-12.1244 -14.5976 0 
5.51118 -15 0 
-15 15 0 
14.9811 -8.85427 0 
2.03583 -14.9181 0 
-14.9938 -10.169 0 
-14.9986 -14.9947 0 
-14.9937 -14.9548 0 
-12.3698 -14.682 0 
-10.5168 -14.8514 0 
-5.83931 -8.75387 0 
-14.9921 1.60553 0 
-14.9974 13.0022 0 
-15 -15 0 
-14.8744 11.3447 0 
15 -15 0 
2.27973 -15 0 
15 -15 0 
8.3996 -14.9948 0 
-12.0859 -15 0 
-14.4651 -14.7699 0 
-14.9356 -8.06705 0 
-14.9969 -9.99953 0 
-14.8853 15 0 
-8.34396 -10.996 0 
-14.9911 -0.431121 0 
-14.914 -14.8958 0 
-12.6835 -14.9754 0 
-14.9943 -9.99925 0 
-14.9789 -11.5964 0 
1.46577 -15 0 
-14.9851 -13.4985 0 
1.52299 -13.648 0 
-14.9355 -9.87471 0 
-12.3415 -14.8377 0 
-15 15 0 
-14.8628 -3.41443 0 
-14.5423 1.92821 0 
-14.9502 -12.6375 0 
-15 -15 0 
7.94435 -15 0 
-14.9989 -13.7951 0 
-14.9989 -8.82264 0 
-6.29001 -13.9686 0 
-2.04571 -11.6231 0 
13.9653 -15 0 
-14.9413 -12.2395 0 
12.3171 9.51114 0 
15 -15 0 
-14.9961 11.7973 0 
6.72025 3.24533 0 
-15 -15 0 
-14.8541 6.60689 0 
-15 -15 0 
-14.9988 13.6394 0 
-11.9424 -12.246 0 
-14.8783 -14.8326 0 
5.58019 -15 0 
-14.9961 -9.99963 0 
0.0732532 -14.9188 0 
-14.9223 -14.9309 0 
15 14.8378 0 
15 -15 0 
-15 15 0 
-9.32898 -9.70573 0 
15 -15 0 
15 -15 0 
-14.8617 -12.4346 0 
-14.9801 -10.0129 0 
-14.9884 -14.6192 0 
15 -15 0 
15 15 0 
11.6865 -14.8997 0 
-4.83022 -12.0181 0 
15 -15 0 
15 -14.9342 0 
-15 -15 0 
11.9477 8.64481 0 
-14.9977 -9.99962 0 
-14.9991 -14.9972 0 
3.55985 -14.6816 0 
-14.8677 -14.8973 0 
-14.9889 -11.5941 0 
15 -15 0 
-11.9956 -14.9357 0 
-14.9853 -9.99583 0 
14.9984 15 0 
-9.22255 -15 0 
-14.9853 -7.49024 0 
5.76889 -14.2816 0 
15 -15 0 
-14.3481 -12.6463 0 
14.9868 15 0 
15 -14.938 0 
-14.9261 -14.9131 0 
9.01977 -14.4092 0 
-8.93422 -14.9556 0 
-14.9988 3.59385 0 
15 -15 0 
-14.9835 -5.86645 0 
-14.9935 1.01752 0 
3.73181 -12.3706 0 
12.7476 -3.05013 0 
-6.84794 -15 0 
15 -15 0 
-14.8865 -12.8163 0 
-14.9769 -9.95785 0 
0.347862 -14.8781 0 
15 -14.8873 0 
-15 15 0 
-14.9902 -14.4098 0 
-12.5004 -13.3423 0 
15 -15 0 
-14.9953 -14.9759 0 
-0.768471 -14.9017 0 
15 -1.76685 0 
-14.8866 -0.890117 0 
-12.1939 -14.8366 0 
15 15 0 
-14.9876 -14.8913 0 
-14.967 -14.9599 0 
-14.9909 -0.480711 0 
-14.9925 -14.9605 0 
-14.9987 8.22373 0 
-15 15 0 
-15 -15 0 
7.65418 -14.6498 0 
-14.9841 -10.0114 0 
-3.00483 -14.674 0 
15 14.9832 0 
15 15 0 
-14.8565 -3.00647 0 
-14.9799 -14.9821 0 
-14.9068 -14.9483 0 
-14.8949 14.1034 0 
-15 -15 0 
-7.18714 -9.89764 0 
-14.8775 -10.4709 0 
0.281858 -5.16031 0 
-14.5327 -12.3253 0 
-15 -15 0 
-14.9973 -9.99961 0 
-14.8449 -14.9041 0 
-14.255 -15 0 
15 -14.933 0 
15 14.9833 0 
-14.9851 -10.0048 0 
-14.9977 9.54682 0 
-14.9907 -14.9417 0 
6.35979 -14.8962 0 
-15 15 0 
14.9836 15 0 
-14.971 -9.99242 0 
15 -15 0 
15 -15 0 
-10.7147 -14.8318 0 
-1.39589 -14.7468 0 
-14.9866 -14.9494 0 
-15 -15 0 
-14.999 -14.9956 0 
15 -15 0 
0.181961 -14.9116 0 
-13.8006 -14.8793 0 
-15 15 0 
15 -15 0 
-14.9419 -14.6864 0 
15 -14.8942 0 
-14.896 -14.9304 0 
14.981 -14.9354 0 
-15 -15 0 
-14.9983 -14.9925 0 
-15 -15 0 
-14.9063 -10.9027 0 
-14.9827 -10.0112 0 
-11.6813 -14.5996 0 
12.1687 -14.9167 0 
-14.9518 -14.9856 0 
15 -14.8865 0 
-14.9274 -14.8678 0 
-14.8817 13.0919 0 
-14.8576 -7.90153 0 
15 -14.9352 0 
15 14.9725 0 
1.60267 1.8171 0 
12.5955 -14.7514 0 
-14.9879 -11.8238 0 
15 14.5505 0 
13.08 -14.6943 0 
-14.9982 -14.7928 0 
-14.887 -14.9146 0 
-15 -15 0 
-14.9227 -14.7512 0 
-0.689816 -15 0 
-14.9095 -14.8133 0 
14.9886 15 0 
-15 -15 0 
-13.8755 -5.28042 0 
-14.9283 -9.96186 0 
-15 -15 0 
15 -14.8796 0 
-14.2164 -14.7675 0 
-14.8909 -10.7577 0 
-14.9967 -9.99958 0 
-4.93401 -13.5351 0 
-15 15 0 
15 -15 0 
3.90797 -14.9486 0 
-3.17968 -14.2533 0 
15 14.959 0 
-15 -15 0 
-14.9993 -14.9976 0 
0.266962 -14.8051 0 
12.5305 -15 0 
-14.9088 -14.185 0 
-14.9886 -14.9326 0 
14.9838 15 0 
-12.1653 -14.8063 0 
15 15 0 
-15 -15 0 
15 -15 0 
-14.8281 9.83352 0 
-14.9851 1.45535 0 
15 -14.9022 0 
15 14.9374 0 
-14.8699 -14.9016 0 
7.51228 -14.4752 0 
-15 -15 0 
15 -14.949 0 
-14.9883 -14.9197 0 
0.652695 -13.7584 0 
15 15 0 
-14.996 -14.9864 0 
-14.8191 4.03823 0 
-15 -15 0 
-14.9862 -14.9531 0 
13.2164 -15 0 
-14.8517 7.23327 0 
9.34924 -14.2209 0 
14.4279 -15 0 
-14.8509 7.16083 0 
-14.9966 14.8526 0 
-14.6373 13.5656 0 
15 -14.9252 0 
8.21281 -15 0 
3.48192 -14.9344 0 
-14.7794 -9.99325 0 
-13.485 -0.379547 0 
-14.9994 13.6091 0 
-14.9984 -14.9903 0 
-5.44269 -7.20711 0 
15 -14.9123 0 
15 -15 0 
15 -15 0 
15 -14.9967 0 
-13.1748 -15 0 
-14.9948 -14.9698 0 
-14.8825 -14.9118 0 
-1.37889 -4.1268 0 
-14.981 -2.53877 0 
15 -15 0 
14.9721 -14.9346 0 
-11.28 0.991893 0 
-14.8412 6.1265 0 
15 -14.9469 0 
-6.06914 -12.2257 0 
-14.9353 -9.76349 0 
15 -15 0 
-15 15 0 
-14.9773 -9.94001 0 
-9.80822 -14.9796 0 
-14.9832 -14.9549 0 
14.9739 14.4557 0 
-14.6246 1.80918 0 
-14.9652 -9.99231 0 
11.4264 -3.20972 0 
15 14.9571 0 
-14.6367 -10.0856 0 
-12.6624 -14.5795 0 
15 15 0 
-14.9828 -14.9748 0 
-14.9947 12.2351 0 
15 15 0 
15 -14.9989 0 
1.83301 -13.7673 0 
-14.9988 -14.9938 0 
0.319523 -6.32951 0 
-11.5036 -14.0065 0 
-15 15 0 
15 -14.9386 0 
-15 -15 0 
-0.635605 -7.2645 0 
14.9756 14.8645 0 
-14.7347 -14.9743 0 
-14.6896 -2.14438 0 
15 15 0 
15 14.9586 0 
-15 -15 0 
-13.0465 -14.9966 0 
15 -15 0 
7.72841 -14.7633 0 
-14.9975 -9.99951 0 
-11.1992 -14.8737 0 
-12.8382 -14.0353 0 
11.2071 -14.9554 0 
-15 -15 0 
-15 -15 0 
-14.8636 10.3278 0 
-14.8113 14.2774 0 
6.17462 -15 0 
-14.81 -10.4834 0 
4.18792 14.4664 0 
14.998 14.9784 0 
-14.8856 14.5145 0 
5.38025 15 0 
9.26899 15 0 
-15 -15 0 
-10.5363 -15 0 
-14.8924 4.79835 0 
-14.9777 4.98252 0 
-3.18617 -15 0 
-15 -15 0 
14.9925 14.7052 0 
-15 15 0 
14.8909 14.9935 0 
-14.9371 -4.02276 0 
-14.9941 10 0 
-14.9919 10 0 
-14.9989 0.849154 0 
-15 15 0 
-15 15 0 
-14.8929 1.75566 0 
-15 15 0 
14.6276 14.9901 0 
7.91854 14.3391 0 
15 -15 0 
-11.1778 -15 0 
-15 15 0 
-2.82555 -15 0 
-14.1984 -15 0 
-10.4215 -14.9093 0 
-15 -15 0 
-14.9996 -10.0078 0 
-14.9449 6.88604 0 
12.9164 15 0 
13.5017 -15 0 
-10.4607 15 0 
14.5662 14.5234 0 
-15 15 0 
-2.52204 -14.9774 0 
-15 15 0 
-14.7656 -14.9974 0 
-14.9178 9.06136 0 
-15 15 0 
15 -14.9313 0 
14.4296 -14.9791 0 
-10.7011 -15 0 
-14.802 13.7043 0 
15 14.6822 0 
-0.689752 -12.3015 0 
6.26737 14.1647 0 
12.057 -15 0 
-3.96842 15 0 
-12.2835 15 0 
-14.9986 -3.6213 0 
8.39948 15 0 
-4.81617 -9.59857 0 
-11.0106 14.9697 0 
-14.9172 -2.72442 0 
-14.9988 -14.9994 0 
-14.9407 14.9835 0 
14.9275 -14.7616 0 
15 -15 0 
14.9309 14.9921 0 
-15 -15 0 
14.7046 14.6578 0 
-14.8876 -14.9979 0 
6.2151 14.579 0 
-14.9204 -4.47025 0 
-10.7948 1.66459 0 
-15 -15 0 
14.6067 -15 0 
-15 15 0 
14.4899 14.9907 0 
-14.9683 9.69528 0 
-15 15 0 
-12.3698 13.7739 0 
-14.9989 -14.9995 0 
-15 15 0 
-14.9425 5.30426 0 
-14.8985 7.04989 0 
-14.8135 -14.9204 0 
14.9562 -15 0 
-13.2184 11.3746 0 
-2.25072 -13.9022 0 
-10.883 15 0 
6.70449 -15 0 
-10.1514 15 0 
-15 15 0 
-10.3648 15 0 
13.0396 -15 0 
-12.5575 -15 0 
1.8585 14.5587 0 
-14.8201 -14.9129 0 
-15 12.4162 0 
-14.9925 -15 0 
-15 -15 0 
-14.9315 -15 0 
-14.9986 9.51522 0 
-15 15 0 
15 -14.9375 0 
-12.482 15 0 
-14.8519 -2.45649 0 
15 14.8579 0 
-14.9398 -3.44942 0 
3.45613 15 0 
7.48063 14.0756 0 
-12.9876 15 0 
-14.9991 5.49153 0 
-15 -15 0 
3.4616 -15 0 
-15 -15 0 
-14.9972 7.7108 0 
15 -15 0 
-7.78931 -15 0 
-15 15 0 
-14.8438 9.81235 0 
-14.9348 -14.985 0 
2.12299 -15 0 
-15 -15 0 
-15 -15 0 
-14.9986 -14.9994 0 
-11.7163 -10.9013 0 
-14.9993 8.63597 0 
-14.8113 -10.6577 0 
-14.9496 14.9743 0 
-14.9968 10 0 
15 14.821 0 
11.7737 -15 0 
15 14.8071 0 
-14.9194 14.6476 0 
-15 15 0 
-14.994 7.04735 0 
-14.9439 -9.17136 0 
-14.8148 9.09094 0 
14.9941 14.9826 0 
-14.9946 10 0 
9.00576 14.2198 0 
5.94063 15 0 
14.989 14.9849 0 
-14.997 0.813307 0 
-14.9177 -4.79226 0 
-15 15 0 
-14.9341 6.5546 0 
-15 -15 0 
15 14.8152 0 
5.60267 13.9769 0 
-14.9971 10 0 
-15 -15 0 
-14.9488 14.9857 0 
-15 -15 0 
-4.27057 15 0 
-15 15 0 
-14.9906 -14.9984 0 
-2.24943 15 0 
-7.50825 14.1132 0 
3.93788 14.5215 0 
-15 15 0 
-14.986 1.57639 0 
-3.68747 -11.6022 0 
-14.9433 14.9805 0 
-14.9992 -14.9997 0 
14.8798 14.6535 0 
-14.9554 13.7474 0 
-14.9984 -8.02805 0 
-14.9471 14.984 0 
13.7155 14.998 0 
13.8654 -14.5024 0 
14.2292 -14.9977 0 
-15 15 0 
-15 15 0 
-15 -15 0 
-14.9563 14.9807 0 
-10.3385 -13.6526 0 
5.4396 -15 0 
-8.84152 -10.0423 0 
-14.9988 2.93488 0 
-14.9978 -3.97575 0 
-15 15 0 
-14.9912 10 0 
-14.9972 -14.9987 0 
-15 -15 0 
-14.827 14.7636 0 
11.7818 -14.2281 0 
-2.16645 15 0 
-14.9397 -14.978 0 
14.7957 14.9919 0 
-14.9967 -14.992 0 
-14.9965 10 0 
-14.9983 -5.54943 0 
-14.9232 8.88967 0 
-14.9464 14.9771 0 
-15 15 0 
-14.8886 10.6278 0 
-10.2157 15 0 
-14.9627 9.79722 0 
12.9068 -14.9317 0 
-15 15 0 
-14.8738 13.1997 0 
-14.8519 14.3417 0 
-15 15 0 
-14.9606 10.1142 0 
-13.5424 -5.90763 0 
-14.8531 9.93266 0 
-14.891 14.9458 0 
-14.9419 14.7555 0 
-14.7937 12.2004 0 
14.8731 -15 0 
-14.8906 0.320106 0 
-14.8833 9.83658 0 
8.44817 14.5547 0 
15 14.7133 0 
-15 -15 0 
2.88772 14.2381 0 
-15 -15 0 
-14.9904 10 0 
-15 -15 0 
-10.5094 6.33664 0 
15 -15 0 
13.8196 14.9992 0 
-9.52676 14.0655 0 
-14.9491 -5.90197 0 
-0.409794 -12.8686 0 
-14.9948 10 0 
-14.9483 13.7634 0 
-10.7099 -13.2629 0 
-15 -15 0 
-4.24604 -14.9768 0 
-14.9788 14.9865 0 
-14.9241 14.6709 0 
-15 -15 0 
15 14.6173 0 
-14.9967 10 0 
-15 15 0 
-15 -15 0 
-11.6023 9.99999 0 
-14.9247 8.72628 0 
-11.6336 9.99999 0 
-14.8174 -14.9198 0 
15 14.758 0 
8.24746 -14.4054 0 
-15 15 0 
14.2397 14.9988 0 
-12.5636 12.2082 0 
-14.9982 -10.2195 0 
14.6257 -14.9681 0 
14.8477 -15 0 
-15 15 0 
13.1859 -15 0 
12.7997 -15 0 
-14.9963 -14.9984 0 
-14.9978 -14.9896 0 
-14.9524 -2.58812 0 
-15 15 0 
-14.9735 14.9929 0 
-14.9669 14.9301 0 
15 -14.9654 0 
-13.3241 -14.8403 0 
14.9468 -14.9281 0 
-14.978 -14.9381 0 
-14.8 -14.8398 0 
14.9639 -14.9255 0 
14.7044 -14.9932 0 
15 -14.9026 0 
15 -14.9092 0 
15 -14.917 0 
15 -14.9165 0 
-14.9976 -14.9995 0 
15 -14.898 0 
-14.9858 -14.926 0 
15 -14.9216 0 
-14.979 -14.9387 0 
-14.9114 -14.9257 0 
-3.26698 -14.788 0 
-14.7362 -13.8947 0 
-14.7674 -14.8122 0 
-14.9316 6.79694 0 
-14.2659 -13.1237 0 
14.495 -14.9979 0 
-14.8119 12.5516 0 
-14.9948 -14.9482 0 
-14.9978 -11.266 0 
-14.4835 13.2141 0 
-14.5978 12.7824 0 
-12.9631 -4.35918 0 
4.9447 -2.30258 0 
-14.4422 14.1031 0 
-9.22228 -14.7017 0 
10.2762 -12.4823 0 
-14.7656 -13.4755 0 
-14.9272 -14.9372 0 
-14.8873 -14.8112 0 
15 -14.9637 0 
-14.995 -14.9507 0 
15 -14.9764 0 
-12.7783 6.97158 0 
-14.7926 -14.7339 0 
15 -14.9677 0 
9.77026 -11.1482 0 
-14.9954 14.9986 0 
-14.4926 14.9308 0 
-14.9909 14.9988 0 
-14.8884 -14.9943 0 
-14.3457 -13.7143 0 
9.72565 -9.91167 0 
-14.8831 -14.9249 0 
-14.9957 -0.248189 0 
-14.9986 -12.2018 0 
7.02587 -9.92961 0 
14.6101 -14.9882 0 
-14.9305 -14.9498 0 
-14.9409 -14.8905 0 
-14.2609 -13.1436 0 
-13.0419 -13.3456 0 
-14.9536 11.9394 0 
8.16219 -14.9978 0 
10.9774 -10.82 0 
15 -11.885 0 
-14.9978 14.9999 0 
-14.9331 -14.8756 0 
-14.994 14.9997 0 
-14.4691 -1.34575 0 
-14.9987 -0.082316 0 
-14.9612 -14.9869 0 
-4.21397 -14.9955 0 
-14.4462 5.81427 0 
-14.3678 3.03181 0 
-14.7448 -10.1357 0 
-13.9783 -14.7105 0 
-14.4754 14.9211 0 
-14.6562 -14.8804 0 
10.9382 -14.9951 0 
-14.998 -14.9964 0 
-14.9982 -14.9902 0 
-14.8083 -14.8129 0 
13.9337 -14.9975 0 
14.9978 -14.932 0 
-14.9925 -14.9852 0 
-14.9791 -14.8853 0 
4.73275 -14.8943 0 
-14.4024 -14.9964 0 
-14.559 12.3223 0 
-14.9415 -14.9576 0 
-14.8067 -14.8177 0 
-14.9953 -14.9439 0 
6.65784 -14.994 0 
-14.8025 -6.2656 0 
-14.4394 5.06325 0 
-14.4819 5.89291 0 
-11.5519 -14.9229 0 
-14.9466 -14.9559 0 
12.2247 -14.7023 0 
14.9231 -14.9142 0 
-14.9983 -11.5128 0 
-14.9776 -14.9942 0 
14.8269 -14.9023 0 
-14.9977 -14.9784 0 
10.795 -11.8137 0 
-14.8908 -14.8542 0 
-1.43222 -14.8493 0 
-6.07757 -14.7337 0 
-14.7241 -14.1007 0 
-14.9975 -14.9802 0 
-14.999 -11.6138 0 
-14.9902 -14.9122 0 
8.89417 -14.939 0 
6.69525 -12.7464 0 
14.609 -14.9038 0 
-14.9996 -14.7647 0 
-14.7238 -11.057 0 
14.9928 -14.9081 0 
-14.9991 -9.94475 0 
-14.9982 10.6564 0 
-14.9983 -14.989 0 
-6.93071 -1.09239 0 
-14.618 -12.7966 0 
12.4968 -11.6599 0 
-14.8219 -14.841 0 
10.7067 -14.987 0 
-13.4216 -14.6517 0 
-14.5242 14.521 0 
-13.1282 4.07535 0 
14.8271 -14.9488 0 
0.537115 -5.75495 0 
-14.6879 -14.9965 0 
2.15709 -10.2575 0 
-14.7816 14.2067 0 
-14.8462 -14.8687 0 
14.866 4.80225 0 
-14.9838 -14.8971 0 
-14.9802 -14.9037 0 
-9.06161 -14.5904 0 
-14.0724 -14.5194 0 
-14.9988 -14.9981 0 
-14.954 14.9391 0 
-14.7524 -10.0329 0 
-14.6229 11.5104 0 
-14.7753 -14.8444 0 
-10.3249 -14.9532 0 
-14.8062 -14.8022 0 
-13.2733 -14.9964 0 
-14.5541 -11.463 0 
-14.9698 -10.1713 0 
9.04171 -14.9968 0 
-14.9963 -14.9995 0 
9.92753 -14.995 0 
-8.81427 -9.98771 0 
-14.2905 4.66903 0 
-14.8202 -14.8008 0 
-15 -15 0 
-14.7954 -11.1703 0 
15 -10.7756 0 
-0.878673 4.0496 0 
14.8271 -4.09673 0 
-14.999 -9.1219 0 
15 -14.9097 0 
-14.9923 -14.9868 0 
-14.7228 -14.9869 0 
0.230461 -14.8047 0 
13.709 -14.9816 0 
-14.9992 -10.7067 0 
-14.2778 -14.5466 0 
14.86 -14.9656 0 
14.9991 -14.9707 0 
14.8493 -15 0 
-0.368977 -13.1492 0 
15 -14.8349 0 
-14.9994 -14.4674 0 
-14.9937 13.8505 0 
-14.9482 -13.6044 0 
9.22887 -14.9139 0 
14.9961 -14.9302 0 
-14.7351 -14.9688 0 
-14.8745 14.5491 0 
-14.9953 -14.9605 0 
11.7239 -14.9963 0 
14.993 -14.8789 0 
-14.7558 -14.9162 0 
4.58547 -14.8255 0 
-14.9974 -14.9708 0 
2.94816 -14.9964 0 
9.64227 5.40368 0 
8.69504 -7.4103 0 
-2.85422 -14.4332 0 
4.41291 -14.949 0 
-10.286 -13.1957 0 
-14.962 -14.4861 0 
13.7367 -14.9532 0 
-14.1063 14.981 0 
-8.74589 -14.9416 0 
-13.296 -14.9955 0 
-14.4265 7.22755 0 
-14.8072 -14.8379 0 
-14.9213 -14.8472 0 
14.7251 -14.8307 0 
9.53328 6.3934 0 
-14.9441 -14.866 0 
15 -14.9029 0 
-14.9973 14.9995 0 
10.92 -14.9871 0 
-14.9938 14.9979 0 
-15 -15 0 
-14.9187 -14.8101 0 
-12.5852 -14.9955 0 
-14.8128 -0.144358 0 
-14.9955 -14.9917 0 
-11.2129 -13.5726 0 
7.09456 -14.9972 0 
-14.9966 -14.9874 0 
-14.9929 -14.9144 0 
-14.8668 -14.9052 0 
13.9166 -11.7481 0 
10.4858 -14.4478 0 
-14.9992 -12.4733 0 
-6.71357 -14.4482 0 
-14.9787 -14.9842 0 
6.94054 -14.8932 0 
-14.7365 -14.9724 0 
-14.9522 12.8889 0 
-14.5615 7.22876 0 
14.7279 -14.9116 0 
-14.9 -14.8941 0 
-14.7719 -14.8613 0 
-14.997 -14.9956 0 
-12.0279 -11.9722 0 
-13.9364 -14.6202 0 
8.95232 -14.664 0 
15 -14.8813 0 
14.9992 -14.9387 0 
-13.3812 7.7968 0 
-14.9939 14.0615 0 
14.1461 -14.9687 0 
-14.9927 -14.9218 0 
14.258 -11.9492 0 
-14.7287 -14.7573 0 
11.0958 5.06184 0 
-14.75 -14.612 0 
13.0423 -13.1815 0 
2.76011 -7.68173 0 
-14.3855 6.2652 0 
-14.8178 4.46102 0 
12.6138 -14.7903 0 
-14.9536 -14.2905 0 
-14.9264 -11.8942 0 
15 -14.9025 0 
-12.576 -14.9911 0 
5.21198 -0.139946 0 
-12.0494 -14.9963 0 
-14.9688 -14.4213 0 
2.41213 -14.9975 0 
8.65145 -14.4966 0 
-14.9196 -4.98638 0 
-14.753 -14.9419 0 
-14.6794 -13.7153 0 
-14.7967 -14.885 0 
-2.22813 7.63922 0 
-13.8774 13.6427 0 
-14.9993 -13.4942 0 
-8.34179 -14.7601 0 
15 -14.9496 0 