<VTKFile type="UnstructuredGrid" version="0.1" byte_order="BigEndian">
  <UnstructuredGrid>
        <Piece NumberOfPoints="8000" NumberOfCells="0" Time= "0.405">      <Points>
        <DataArray name="Position" type="Float32"  NumberOfComponents= "3"  format="ascii">

47.2692 10.6403 0 
49.9641 24.3143 0 
51.8945 18.5593 0 
53.8504 33.8813 0 
54.432 19.2629 0 
55.9179 20.9955 0 
54.2584 20.4995 0 
56.1844 24.303 0 
54.6372 26.3002 0 
55.9007 29.0007 0 
58.1767 5.30622 0 
57.2853 5.66738 0 
57.2246 7.38062 0 
58.1818 12.6065 0 
58.2858 12.8072 0 
58.5816 14.8766 0 
57.1198 20.4807 0 
58.6521 20.4277 0 
57.023 23.037 0 
58.2391 23.0676 0 
58.2605 25.8924 0 
57.322 30.8432 0 
58.816 29.6791 0 
58.0385 31.8798 0 
58.3165 36.1352 0 
59.629 1.31921 0 
61.0143 1.93446 0 
61.2643 0.922471 0 
61.2437 3.83297 0 
59.0202 3.32018 0 
59.2174 7.4148 0 
60.1974 11.1988 0 
60.1694 11.7817 0 
59.2439 11 0 
60.8516 10.7072 0 
61.0838 12.2323 0 
59.9829 13.0875 0 
60.803 12.8004 0 
60.0137 14.7014 0 
59.5411 16.3262 0 
60.0364 16.5956 0 
60.7779 15.1192 0 
59.6468 19.1083 0 
58.9927 18.7464 0 
59.2902 17.2867 0 
61.2348 17.9926 0 
59.1753 20.0345 0 
59.2637 24.0205 0 
60.0322 22.0703 0 
60.9076 23.8193 0 
59.2645 23.7166 0 
59.7056 25.8901 0 
60.4537 24.7684 0 
60.4459 28.9894 0 
61.033 27.3693 0 
60.9522 28.3541 0 
59.4078 27.9953 0 
60.3159 30.7577 0 
60.4762 33.7568 0 
60.0921 32.1427 0 
60.0483 32.845 0 
59.6346 33.869 0 
60.6894 33.9477 0 
59.3781 36.8491 0 
59.9551 35.2251 0 
60.4202 37.1347 0 
61.0876 36.8834 0 
60.4432 36.4627 0 
60.8375 37.5994 0 
60.5205 38.048 0 
62.989 1.31243 0 
62.5597 0.963945 0 
63.3397 4.21606 0 
63.855 3.93662 0 
61.7967 3.09917 0 
63.159 5.65683 0 
62.7683 6.03584 0 
63.3114 6.17924 0 
61.9422 7.31288 0 
62.5199 6.29401 0 
61.2083 7.58981 0 
62.6335 6.86255 0 
62.7157 8.30779 0 
63.0601 8.66679 0 
62.7309 8.47101 0 
61.8759 8.86943 0 
62.5573 11.1689 0 
63.5067 10.4469 0 
62.5926 9.83747 0 
63.4377 9.84245 0 
61.9503 10.7643 0 
63.0415 12.5122 0 
62.373 13.5531 0 
62.3688 13.0179 0 
63.7886 14.6869 0 
61.9914 12.6287 0 
61.5885 12.821 0 
61.7209 13.5368 0 
63.4556 13.8039 0 
62.5118 11.8354 0 
61.3718 14.2875 0 
61.8766 16.35 0 
61.1108 16.7458 0 
63.2478 16.6447 0 
61.8546 16.789 0 
64.1193 16.3538 0 
61.8674 15.2711 0 
62.8456 17.5796 0 
62.1057 16.8621 0 
63.3354 18.6035 0 
63.4118 18.5209 0 
63.5192 16.9034 0 
62.6143 17.9614 0 
62.1648 19.2749 0 
62.2572 18.8531 0 
62.9727 19.2333 0 
62.5621 18.474 0 
62.7032 17.8556 0 
61.6752 20.0458 0 
61.8132 21.4036 0 
63.714 20.5233 0 
61.8313 24.0808 0 
62.7468 23.7733 0 
63.3514 23.2355 0 
62.86 26.4889 0 
63.9702 24.9743 0 
63.4173 25.7308 0 
62.5381 25.6405 0 
62.6894 28.1924 0 
63.5798 28.1063 0 
63.3922 29.2191 0 
61.8068 27.3978 0 
63.2765 28.9833 0 
62.1749 29.6043 0 
63.698 28.9102 0 
62.0259 30.9897 0 
62.9657 29.6431 0 
64.0245 30.3932 0 
61.1259 30.4103 0 
63.7409 30.4206 0 
63.4722 30.9499 0 
62.4752 29.9155 0 
63.2081 33.0181 0 
63.6852 32.4069 0 
62.7482 33.0061 0 
61.5482 33.6299 0 
61.7265 32.9567 0 
62.3316 35.5497 0 
63.2966 36.6257 0 
61.3307 35.2675 0 
63.7023 36.5153 0 
61.5454 37.2068 0 
62.2809 36.916 0 
63.4226 38.0018 0 
62.0923 37.3694 0 
64.9251 38.4606 0 
64.197 1.17134 0 
65.3356 1.04191 0 
65.9102 0.712551 0 
64.7012 0.160404 0 
65.2896 1.0585 0 
66.405 0.0733623 0 
66.0954 0.853297 0 
65.3196 1.38575 0 
63.9184 1.12605 0 
65.6185 1.80799 0 
64.483 2.60211 0 
64.1552 2.50237 0 
65.3454 2.20464 0 
66.2435 1.97701 0 
64.4175 2.60101 0 
66.1796 3.2326 0 
66.3662 2.07447 0 
63.9381 6.27666 0 
66.0678 6.32544 0 
64.2702 5.27877 0 
64.9371 4.95841 0 
64.9403 4.87663 0 
65.9844 6.2512 0 
66.1667 4.28187 0 
65.9531 6.89481 0 
65.6268 5.34132 0 
65.4705 5.77406 0 
65.8436 6.09996 0 
65.82 5.32646 0 
65.6022 4.73618 0 
65.8431 8.7329 0 
64.2251 8.44184 0 
66.01 8.45788 0 
66.0268 8.73254 0 
65.6465 9.49503 0 
64.3938 8.50575 0 
65.6711 7.68803 0 
65.6209 9.49266 0 
65.7058 9.85723 0 
65.6025 10.2916 0 
65.4114 10.5546 0 
64.157 9.95553 0 
66.5091 11.6537 0 
65.897 9.29082 0 
66.1408 11.0224 0 
65.049 11.2077 0 
65.44 10.9154 0 
64.4328 11.0782 0 
65.3984 12.9989 0 
65.2168 13.4035 0 
65.7028 15.3783 0 
65.74 13.2236 0 
66.0044 13.2629 0 
65.3882 12.4782 0 
65.5576 12.391 0 
65.6519 13.0401 0 
65.9917 16.4198 0 
65.0798 14.4446 0 
64.9804 15.4948 0 
63.7617 16.3164 0 
65.655 16.0472 0 
65.0554 15.2681 0 
65.3939 16.4086 0 
65.0338 14.6474 0 
64.3217 15.7821 0 
64.6204 15.5466 0 
65.8788 15.6546 0 
65.1319 14.4264 0 
64.217 15.2332 0 
63.7712 15.6501 0 
66.2276 16.8927 0 
66.3811 16.7577 0 
64.3603 14.0885 0 
64.6947 15.8223 0 
66.2068 15.0542 0 
65.29 15.9369 0 
65.4629 16.3132 0 
64.6441 16.8772 0 
65.5254 19.2217 0 
65.8908 18.435 0 
64.4634 17.7619 0 
65.2843 19.1779 0 
64.3408 18.765 0 
65.1111 18.4047 0 
65.2464 17.6967 0 
64.8018 19.8612 0 
66.0925 17.7532 0 
64.5533 20.4329 0 
64.7207 21.0445 0 
65.9632 20.8795 0 
66.0713 21.5709 0 
66.0317 21.0346 0 
66.459 21.4783 0 
65.8516 21.425 0 
65.2354 20.1696 0 
66.5207 21.6697 0 
65.7883 20.2472 0 
64.1866 19.5273 0 
65.4668 19.944 0 
64.3179 21.6517 0 
66.3108 20.7841 0 
65.8861 19.6391 0 
66.4108 20.7771 0 
66.0869 23.0241 0 
64.8537 24.5583 0 
64.557 23.7412 0 
64.4697 24.0987 0 
65.5644 23.608 0 
65.041 23.5134 0 
65.2359 24.0962 0 
64.2122 23.4327 0 
65.8217 25.9528 0 
65.4494 26.4491 0 
64.4725 25.3705 0 
65.8597 25.4566 0 
64.7088 25.3288 0 
66.2801 25.098 0 
65.0953 26.0417 0 
65.8811 26.8137 0 
64.4688 27.7452 0 
64.5522 28.1259 0 
64.2899 29.2404 0 
66.0368 29.0173 0 
66.2064 28.2736 0 
65.4204 29.7483 0 
64.8096 26.8996 0 
65.7224 28.754 0 
64.2596 26.8953 0 
65.0197 29.8786 0 
64.993 30.4584 0 
65.4724 30.2344 0 
64.7725 31.6517 0 
63.9354 31.7184 0 
64.2663 29.5414 0 
65.3094 30.4809 0 
66.211 32.1221 0 
63.9464 34.5237 0 
64.9603 32.7833 0 
65.9829 34.3577 0 
64.9953 33.6438 0 
65.338 33.7138 0 
64.6931 34.4839 0 
64.6503 33.6538 0 
65.5454 32.6002 0 
64.2234 35.7586 0 
65.1778 35.1576 0 
65.5221 36.4895 0 
65.2191 35.3507 0 
66.4397 36.0159 0 
64.8647 35.7023 0 
65.3792 35.0682 0 
65.9618 34.7712 0 
66.0805 38.4922 0 
64.973 37.3132 0 
67.4176 0.913239 0 
68.5137 0.842571 0 
67.7078 0.342158 0 
67.2544 1.23262 0 
68.8821 0.5314 0 
68.2164 1.60678 0 
66.9171 1.91508 0 
68.3758 38.3441 0 
66.6137 0.0711316 0 
66.898 1.47926 0 
68.8209 1.85094 0 
68.2893 3.56471 0 
66.5132 2.76686 0 
67.6326 4.28632 0 
66.7739 3.63032 0 
67.7527 4.00002 0 
68.2461 5.19856 0 
68.0551 4.17208 0 
67.0583 4.04712 0 
66.7037 4.17989 0 
67.3744 5.0822 0 
67.627 6.8716 0 
68.7358 5.77125 0 
68.3804 5.4357 0 
67.1868 7.11151 0 
67.034 4.82691 0 
67.8457 6.0196 0 
68.5106 5.25081 0 
68.3428 4.95653 0 
67.681 8.3476 0 
66.7739 8.65414 0 
68.1832 7.12544 0 
66.7878 9.15873 0 
68.3218 7.8159 0 
67.6238 7.20199 0 
67.8625 7.73597 0 
67.7676 8.4711 0 
67.7306 8.41836 0 
67.334 9.66786 0 
67.2764 7.61117 0 
68.4502 10.2928 0 
68.3927 6.87526 0 
66.4567 8.19446 0 
66.6402 11.8558 0 
66.6975 11.6429 0 
68.6897 9.33955 0 
68.6377 10.1285 0 
68.2846 10.2479 0 
68.7388 10.956 0 
68.2248 10.4506 0 
66.7245 10.0114 0 
67.1017 9.87932 0 
67.875 9.90237 0 
67.3966 10.4457 0 
68.3804 12.2272 0 
67.4902 10.6544 0 
68.0538 9.41066 0 
67.0854 10.4067 0 
67.4102 9.41555 0 
67.0814 10.1807 0 
67.9043 11.0287 0 
68.4973 11.397 0 
66.502 10.2376 0 
66.3654 10.4875 0 
68.3855 12.5247 0 
67.1314 13.4321 0 
67.8548 12.8265 0 
66.6553 12.5733 0 
67.577 13.6479 0 
66.6146 13.7738 0 
66.8854 12.7545 0 
67.4692 12.4447 0 
68.0248 13.4024 0 
67.81 13.7025 0 
67.1375 14.4025 0 
67.3952 13.0815 0 
66.3738 12.9833 0 
68.269 12.823 0 
67.5837 12.0216 0 
67.5092 14.3424 0 
66.7415 16.3067 0 
67.5818 15.1547 0 
66.4183 15.8688 0 
68.5136 15.786 0 
67.9666 14.7662 0 
67.6884 14.3008 0 
67.1407 17.0006 0 
68.8324 15.6168 0 
68.248 17.0408 0 
68.6608 16.2898 0 
66.9962 15.971 0 
68.3569 15.644 0 
67.6444 15.7083 0 
68.3376 18.0087 0 
68.2939 17.1959 0 
67.3414 19.3958 0 
68.8972 18.2525 0 
68.347 19.0461 0 
66.766 16.7392 0 
67.9216 18.1551 0 
67.0239 17.1063 0 
67.6313 16.8927 0 
66.8305 17.7041 0 
67.5647 19.6965 0 
67.1395 17.4206 0 
67.9072 19.8919 0 
68.2808 17.6136 0 
66.7049 18.2435 0 
67.4235 16.7494 0 
66.6229 16.7647 0 
66.3654 21.1942 0 
68.2177 19.6546 0 
68.2912 19.3006 0 
67.1975 20.7391 0 
68.8356 19.2385 0 
68.5927 19.1052 0 
68.9469 21.6243 0 
67.7349 19.1848 0 
67.5927 21.049 0 
67.419 21.8138 0 
68.4217 19.5242 0 
67.4703 21.0824 0 
68.4279 21.1483 0 
67.9653 20.902 0 
67.3584 20.9241 0 
68.2504 22.8318 0 
67.1038 22.8575 0 
67.6381 23.863 0 
67.776 22.0833 0 
67.9494 22.9738 0 
68.2272 22.3448 0 
66.5942 22.708 0 
67.249 24.3682 0 
67.4834 22.8997 0 
67.3443 23.05 0 
68.591 23.8988 0 
67.2358 22.4428 0 
68.8691 23.4489 0 
66.8379 23.6181 0 
66.713 21.8653 0 
68.4261 25.7838 0 
66.8946 26.2686 0 
68.7201 26.3033 0 
67.167 26.106 0 
68.8197 26.199 0 
67.81 25.2927 0 
67.7782 26.8637 0 
68.088 26.6111 0 
67.3436 25.6578 0 
68.3851 24.6737 0 
67.9513 26.0997 0 
68.4654 25.9876 0 
68.8502 25.5871 0 
67.1211 24.7614 0 
67.2529 28.8305 0 
67.9674 29.7184 0 
67.2744 28.9441 0 
67.8905 28.4233 0 
68.5421 28.7741 0 
67.6958 27.5996 0 
66.8669 27.9752 0 
67.9566 28.6605 0 
66.6093 29.2069 0 
68.2914 27.2734 0 
68.6528 28.8803 0 
67.0613 29.1002 0 
68.808 27.0216 0 
66.5566 27.3702 0 
67.8407 30.7199 0 
68.4718 31.7709 0 
68.4352 29.8706 0 
68.5138 29.7758 0 
67.3565 29.4331 0 
68.2609 30.0622 0 
67.0217 31.4848 0 
66.9893 30.6352 0 
69.0118 31.8765 0 
68.0977 30.8619 0 
68.646 31.6086 0 
67.1676 29.8266 0 
66.9036 29.7033 0 
68.5178 33.3053 0 
68.176 31.8917 0 
67.9953 33.3769 0 
68.1425 33.209 0 
68.7739 34.5985 0 
68.6414 33.9742 0 
68.5576 32.4868 0 
67.8048 35.3912 0 
69.0355 35.6558 0 
66.3434 36.2496 0 
68.0199 36.0319 0 
67.5845 36.7807 0 
66.7171 36.2103 0 
68.5372 36.5431 0 
67.4792 34.5269 0 
66.9137 36.5501 0 
68.1959 36.4588 0 
67.0006 37.292 0 
66.5897 34.6704 0 
68.5403 36.6319 0 
68.4834 35.7695 0 
67.8184 37.973 0 
67.2759 37.3797 0 
68.9325 37.2855 0 
67.3462 38.0999 0 
67.659 37.6905 0 
[...]
      <PointData Vectors="vector">
        <DataArray type="Float32" Name="Velocity" NumberOfComponents="3" format="ascii">

-247.14 -185.82 0 
-231.477 -103.832 0 
-217.522 -134.619 0 
-235.653 -128.391 0 
-212.984 -122.03 0 
-222.551 -80.1046 0 
-204.114 -67.0263 0 
-269.548 -148.535 0 
-178.273 72.2319 0 
-289.356 -95.9673 0 
-194.945 -129.284 0 
-234.401 -105.939 0 
-208.976 -16.9182 0 
-209.073 -99.281 0 
-207.379 31.0083 0 
-229.413 -83.5373 0 
-261.864 -189.089 0 
-242.129 -194.947 0 
-234.356 -146.456 0 
-247.667 -131.191 0 
-297.996 -165.082 0 
-244.661 -135.382 0 
-184.551 -32.7719 0 
-284.268 -148.285 0 
-195.953 -139.181 0 
-228.168 -133.13 0 
-235.061 -184.369 0 
-227.535 -105.414 0 
-217.42 -141.943 0 
-228.761 -28.8099 0 
-230.663 -131.099 0 
-208.4 -110.528 0 
-246.194 -66.4831 0 
-234.529 -89.0275 0 
-219.569 -64.6179 0 
-199.343 -69.3478 0 
-196.955 -77.3128 0 
-218.296 -73.1508 0 
-256.428 -57.0346 0 
-240.927 37.411 0 
-283.515 -98.084 0 
-223.139 -29.4824 0 
-193.116 -74.3234 0 
-242.434 -74.0015 0 
-215.443 -45.4085 0 
-237.475 -28.2269 0 
-261.322 -184.935 0 
-254.46 -34.5034 0 
-249.519 -182.952 0 
-243.555 -169.302 0 
-185.947 87.8904 0 
-233.887 -201.995 0 
-221.18 -24.2423 0 
-290.778 -154.847 0 
-283.027 -130.397 0 
-202.283 -153.655 0 
-214.566 21.2068 0 
-210.157 -26.1086 0 
-202.687 -195.677 0 
-228.814 -165.556 0 
-261.196 -164.366 0 
-276.069 -125.182 0 
-217.715 -109.818 0 
-288.209 -136.731 0 
-224.676 -146.966 0 
-273.418 -21.535 0 
-181.19 117.361 0 
-207.906 -149.308 0 
-193.666 18.2059 0 
-205.203 -176.87 0 
-215.483 -145.742 0 
-273.342 -94.723 0 
-222.993 -111.169 0 
-164.288 -107.755 0 
-226.625 -80.3106 0 
-219.377 -100.254 0 
-220.299 -136.767 0 
-224.719 -95.904 0 
-272.123 -126.837 0 
-249.596 -144.186 0 
-218.522 145.117 0 
-190.864 -120.089 0 
-224.844 -58.7946 0 
-282.647 -54.4285 0 
-222.951 -95.9315 0 
-274.033 -100.769 0 
-202.854 -99.3491 0 
-213.668 -111.656 0 
-236.105 -86.5596 0 
-247.237 -103.088 0 
-257.494 -89.2658 0 
-214.152 -104.324 0 
-227.607 -86.6158 0 
-206.195 -27.6955 0 
-239.806 -88.3185 0 
-203.557 49.1621 0 
-245.793 -56.0246 0 
-206.822 -69.1565 0 
-194.807 -49.8299 0 
-265.9 -44.1043 0 
-241.318 -236.066 0 
-258.593 -71.1051 0 
-212.517 -44.4247 0 
-257.297 -91.6529 0 
-215.072 -79.7909 0 
-240.556 -68.4961 0 
-210.783 -53.9998 0 
-257.134 -192.261 0 
-230.87 -51.8657 0 
-187.806 -173.222 0 
-196.012 -24.7669 0 
-258.716 -193.655 0 
-216.156 -52.2906 0 
-225.599 -47.6655 0 
-251.552 -161.835 0 
-245.676 -178.282 0 
-187.459 -57.4186 0 
-194.191 -33.3462 0 
-202.983 -181.404 0 
-256.274 -60.377 0 
-214.419 -10.9975 0 
-254.967 -139.999 0 
-221.781 -158.837 0 
-239.287 -172.758 0 
-216.204 -172.955 0 
-227.443 -132.756 0 
-256.165 -47.206 0 
-236.957 -26.2368 0 
-224.488 -184.981 0 
-179.487 -28.8373 0 
-215.431 -141.647 0 
-226.608 -62.2563 0 
-226.763 -145.16 0 
-239.497 -197.85 0 
-197.418 79.2343 0 
-245.315 -200.01 0 
-268.664 -42.8205 0 
-237.995 -215.77 0 
-269.363 -126.026 0 
-194.584 -160.787 0 
-244.118 -18.2861 0 
-230.234 22.8085 0 
-259.249 -49.2826 0 
-250.608 1.66142 0 
-258.599 -179.637 0 
-204.116 86.3037 0 
-166.075 2.93782 0 
-233.939 7.02469 0 
-240.048 -144.144 0 
-253.643 -166.036 0 
-244.077 -156.879 0 
-237.303 -160.448 0 
-232.487 -155.741 0 
-223.127 3.29402 0 
-243.958 -161.432 0 
-181.294 79.9766 0 
-241.412 -145.038 0 
-259.014 -173.641 0 
-253.025 -47.8205 0 
-225.832 -137.779 0 
-251.303 -128.959 0 
-243.1 -112.785 0 
-142.523 102.942 0 
-232.749 38.0561 0 
-204.812 -112.87 0 
-202.692 -102.835 0 
-140.905 106.11 0 
-225.382 -130.971 0 
-186.336 -18.8849 0 
-193.527 -119.876 0 
-276.653 -127.53 0 
-219.935 -106.902 0 
-254.841 -124.925 0 
-207.793 -97.7116 0 
-245.658 -129.792 0 
-216.236 -148.192 0 
-235.199 -28.9448 0 
-233.592 -105.778 0 
-249.11 -155.028 0 
-279.819 -84.9922 0 
-258.728 -128.32 0 
-249.995 -94.1498 0 
-210.852 -147.624 0 
-216.311 -113.19 0 
-202.829 -103.818 0 
-220.82 -99.4369 0 
-221.845 -98.1864 0 
-240.921 -99.981 0 
-189.518 -83.5379 0 
-193.132 -98.8591 0 
-217.821 -28.4197 0 
-202.427 -102.316 0 
-199.431 12.4152 0 
-206.229 -116.877 0 
-252.094 -57.6484 0 
-222.844 -8.2348 0 
-205.54 -75.0668 0 
-185.643 -80.3325 0 
-239.857 -119.95 0 
-196.397 -17.7037 0 
-212.675 -102.952 0 
-231.294 -97.6052 0 
-202.606 -100.189 0 
-220.968 -97.5578 0 
-208.897 -74.2428 0 
-214.174 -83.2948 0 
-250.148 -252.398 0 
-257.407 -115.601 0 
-247.75 -192.598 0 
-243.419 -250.903 0 
-264.074 -109.726 0 
-264.779 -99.5288 0 
-277.576 -93.7567 0 
-199.486 -208.344 0 
-251.299 -114.811 0 
-196.803 -66.4507 0 
-183.31 -120.747 0 
-217.008 -86.6512 0 
-224.486 -57.3183 0 
-204.224 -95.8723 0 
-201.664 -61.4069 0 
-190.289 44.4858 0 
-207.614 -111.726 0 
-223.303 -235.495 0 
-237.406 -189.163 0 
-217.632 -194.307 0 
-238.211 -223.664 0 
-229.159 -77.9977 0 
-261.139 -102.004 0 
-239.92 -69.9622 0 
-242.13 -212.27 0 
-203.074 -200.324 0 
-277.484 -47.4876 0 
-235.342 -177.378 0 
-203.993 80.0107 0 
-254.02 -70.5074 0 
-259.895 -18.4573 0 
-247.752 -156.048 0 
-220.371 -45.179 0 
-181.265 55.7531 0 
-278.701 -190.054 0 
-220.396 -172.236 0 
-222.344 -173.091 0 
-254.352 -166.225 0 
-250.907 -78.4335 0 
-221.288 -56.2786 0 
-136.292 61.7225 0 
-228.901 -63.643 0 
-203.116 -205.882 0 
-237.721 -61.6104 0 
-179.695 -53.0407 0 
-171.763 -159.762 0 
-236.48 -92.5784 0 
-215.11 -76.7038 0 
-227.146 -49.252 0 
-227.252 -8.36302 0 
-258.905 -162.234 0 
-239.914 -35.3626 0 
-180.252 47.9041 0 
-249.068 -170.256 0 
-184.681 69.5175 0 
-195.132 -76.413 0 
-245.905 -215.464 0 
-194.496 69.8467 0 
-211.617 -22.0115 0 
-264.658 -49.7048 0 
-253.123 -199.676 0 
-200.552 -37.0946 0 
-239.802 -63.8229 0 
-204.679 -176.375 0 
-242.628 -213.046 0 
-229.676 -159.747 0 
-244.559 -45.8249 0 
-195.803 -136.45 0 
-237.687 -140.046 0 
-231.548 -190.438 0 
-237.718 -168.857 0 
-237.559 -191.163 0 
-256.753 -43.038 0 
-261.098 -158.746 0 
-205.043 -170.239 0 
-190.365 -53.886 0 
-202.469 -157.02 0 
-220.831 -41.3472 0 
-221.634 -70.6894 0 
-230.769 -39.2229 0 
-237.468 -167.288 0 
-255.719 -198.481 0 
-248.805 -188.311 0 
-212.28 -169.176 0 
-242.185 -129.583 0 
-226.044 -183.207 0 
-249.256 -129.134 0 
-255.628 -159.354 0 
-268.92 -163.215 0 
-249.236 -150.702 0 
-227.13 -166.502 0 
-230.05 -4.40989 0 
-221.04 -46.7047 0 
-259.09 -187.334 0 
-201.08 65.1927 0 
-187.127 -32.0892 0 
-228.513 -190.587 0 
-161.384 -154.033 0 
-198.031 -13.9637 0 
-223.903 -189.669 0 
-232.079 -26.7333 0 
-222.44 -154.175 0 
-237.882 -24.7116 0 
-238.498 -6.58786 0 
-227.501 -156.968 0 
-196.154 -147.226 0 
-156.153 61.595 0 
-168.843 -163.059 0 
-229.074 -148.807 0 
-256.219 -159.599 0 
-193.576 -196.515 0 
-271.437 -171.582 0 
-256.927 -167.508 0 
-255.538 -153.054 0 
-243.869 -137.137 0 
-266.604 -162.244 0 
-207.541 -33.9021 0 
-193.372 -44.9482 0 
-260.502 -173.427 0 
-299.616 -138.401 0 
-188.037 11.9001 0 
-245.674 -146.412 0 
-225.061 14.0556 0 
-228.049 -2.38521 0 
-240.304 -172.016 0 
-215.714 -149.164 0 
-214.268 -131.936 0 
-215.639 -170.135 0 
-234.005 -148.995 0 
-266.467 -148.229 0 
-254.946 -128.578 0 
-175.146 -29.2644 0 
-193.048 4.87212 0 
-223.455 -30.8772 0 
-192.801 -123.579 0 
-177.133 -78.8522 0 
-209.054 -126.343 0 
-183.42 -127.246 0 
-200.087 -124.21 0 
-217.342 -111.986 0 
-255.116 -161.259 0 
-223.365 -177.454 0 
-213.481 -145.711 0 
-203.083 -78.3891 0 
-235.21 -132.046 0 
-222.439 -118.966 0 
-243.84 -107.158 0 
-206.682 -167.562 0 
-213.673 -133.008 0 
-240.658 -150.31 0 
-214.08 -84 0 
-249.129 -107.022 0 
-224.979 -104.36 0 
-177.136 -87.944 0 
-201.421 20.7622 0 
-224.374 -120.075 0 
-286.88 -131.964 0 
-179.489 -21.0538 0 
-236.969 -115.611 0 
-267.604 -150.057 0 
-183.819 -7.08402 0 
-207.422 -116.217 0 
-211.089 -121.357 0 
-194.184 -110.107 0 
-191.37 -99.4285 0 
-174.708 -130.38 0 
-217.153 -89.1869 0 
-215.291 -126.753 0 
-220.542 -86.091 0 
-203.888 -100.03 0 
-198.561 -60.4216 0 
-216.391 -74.885 0 
-204.134 -83.7659 0 
-197.707 -100.515 0 
-229.381 -204.924 0 
-255.561 -88.1454 0 
-213.665 -66.52 0 
-214.419 -79.3031 0 
-238.778 -67.165 0 
-203.074 -38.2358 0 
-223.629 -83.5308 0 
-266.402 -88.6522 0 
-182.08 -85.5077 0 
-236.625 4.57635 0 
-220.735 -81.7409 0 
-213.429 -45.259 0 
-210.789 -97.0077 0 
-247.697 -136.639 0 
-219.799 36.1556 0 
-201.751 -205.169 0 
-230.736 -116.234 0 
-206.841 -134.046 0 
-162.705 -79.2613 0 
-215.91 -212.924 0 
-224.727 -68.4485 0 
-179.178 -115.506 0 
-230.667 -178.33 0 
-216.051 -201.671 0 
-176.41 -52.2144 0 
-172 -172.635 0 
-219.873 -52.5746 0 
-255.656 -17.2146 0 
-240.727 -77.1789 0 
-189.935 -57.3651 0 
-201.671 -184.849 0 
-198.344 -183.178 0 
-201.279 -91.2848 0 
-167.178 -76.1999 0 
-202.883 -64.129 0 
-235.511 -176.988 0 
-240.67 -159.869 0 
-223.074 -200.601 0 
-225.311 -49.6136 0 
-210.033 -73.7931 0 
-238.601 -61.9264 0 
-230.909 -95.7144 0 
-165.851 72.0772 0 
-258.432 -166.557 0 
-205.094 -96.6783 0 
-181.864 -107.758 0 
-243.318 -170.893 0 
-185.211 62.0852 0 
-220.604 -69.7403 0 
-232.864 -213.732 0 
-224.835 -181.277 0 
-216.82 -193.763 0 
-241.614 -153.282 0 
-254.08 -201.181 0 
-206.497 -80.7647 0 
-218.507 -205.603 0 
-194.381 -202.413 0 
-248.499 -206.905 0 
-215.871 -76.3552 0 
-287.668 -223.266 0 
-202.821 -217.082 0 
-177.453 -43.2932 0 
-228.311 -199.243 0 
-200.934 -211.293 0 
-210.56 -188.56 0 
-239.977 -62.3186 0 
-221.917 -170.642 0 
-212.443 -193.953 0 
-221.048 -189.988 0 
-210.69 -212.137 0 
-225.317 -206.017 0 
-219.425 -146.524 0 
-190.92 -216.079 0 
-163.372 -41.6355 0 
-147.898 77.1713 0 
-138.146 66.0055 0 
-238.617 -184.271 0 
-232.562 -193.04 0 
-237.497 -214.014 0 
-246.572 -187.593 0 
-209.49 11.14 0 
-254.256 -140.756 0 
-235.855 -198.985 0 
-225.347 -144.424 0 
-216.956 -187.229 0 
-228.774 -181.05 0 
-255.772 -175.568 0 
-200.791 -140.395 0 
-252.638 -181.523 0 
-203.951 55.114 0 
-267.509 -27.6375 0 
-240.629 -191.214 0 
-265.044 -153.68 0 
-231.438 -163.676 0 
-207.898 -53.0632 0 
-234.006 -204.339 0 
-248.273 -183.737 0 
-191.553 -152.641 0 
-266.498 -210.597 0 
-192.428 -191.701 0 
-213.577 6.04104 0 
-234.419 -20.5648 0 
-229.536 -215.05 0 
-239.376 4.92049 0 
-225.275 -190.481 0 
-199.386 -30.7313 0 
-266.188 -184.179 0 
-231.681 4.91418 0 
-186.655 -138.078 0 
-262.154 -167.022 0 
-229.369 -30.0842 0 
-206.308 91.2328 0 
-167.695 99.2293 0 
-225.151 -179.656 0 
-232.285 -20.9109 0 
-241.631 -192.983 0 
-224.791 -157.128 0 
-272.136 -198.156 0 
-234.428 -150.211 0 
-258.789 -159.151 0 
-183.091 -22.4972 0 
-182.943 -184.121 0 
-182.876 -181.492 0 
-280.844 -194.307 0 
-217.094 2.4766 0 
-223.323 -197.024 0 
-278.071 -200.393 0 
-261.147 -202.373 0 
-211.517 -169.145 0 
-213.047 -186.965 0 
-229.57 -190.864 0 
-202.691 1.59124 0 
-212.964 -179.911 0 
-212.726 -18.9447 0 
-244.703 -206.127 0 
-185.007 -151.233 0 
-275.599 -171.77 0 
-267.634 -179.248 0 
-201.09 -175.379 0 
-199.547 -162.253 0 
-269.711 -176.961 0 
-216.484 -141.083 0 
-258.799 -145.572 0 
-218.829 -163.593 0 
-226.945 -118.329 0 
-199.607 -20.6313 0 
-231.874 -145.939 0 
-205.868 -154.558 0 
-195.288 -108.245 0 
-225.36 -130.422 0 
-251.475 -161.598 0 
-240.032 -114.779 0 
-248.071 -139.213 0 
-246.572 -162.287 0 
-199.227 -136.959 0 
-164.372 -27.5238 0 
-251.155 -119.899 0 
-240.171 -90.7966 0 
-231.726 -153.918 0 
-209.566 -122.519 0 
-174.538 116.783 0 
-243.275 -140.48 0 
-201.67 -149.24 0 
-245.001 -147.947 0 
-244.323 -145.276 0 
-221.432 -130.049 0 
-187.743 -167.596 0 
-203.486 -120.59 0 
-153.725 -51.8988 0 
-227.649 -139.465 0 
-248.821 -112.389 0 
-208.719 -116.862 0 
-196.911 -120.515 0 
-220.423 -92.7459 0 
-190.146 -147.905 0 
-218.233 -119.469 0 
-178.384 -136.088 0 
-188.554 112.268 0 
-252.285 -168.168 0 
-237.615 -125.758 0 
-183.64 -5.34984 0 
-164.594 110.544 0 
-216.841 -127.887 0 
-246.8 -146.382 0 
-202.068 -101.954 0 
-235.839 -164.16 0 
-192.708 -149.331 0 
-203.955 -143.33 0 
-235.217 -94.1436 0 
-148.776 -85.6956 0 
-209.784 9.0836 0 
-232.775 -173.104 0 
-235.994 -113.152 0 
-219.53 -129.043 0 
-228.717 -141.332 0 
-191.106 14.2161 0 
-217.477 -29.5306 0 
-225.118 -136.612 0 
-235.925 -126.966 0 
-234.596 -123.586 0 
-182.603 -135.761 0 
-259.53 -232.93 0 
-242.597 -116.101 0 
-255.739 -105.726 0 
-232.568 -129.652 0 
-196.897 -17.0496 0 
-220.205 -263.936 0 
-235.514 -112.649 0 
-202.992 -145.904 0 
-182.584 8.73213 0 
-241.106 -106.327 0 
-161.254 -97.6243 0 
-237.835 -130.727 0 
-221.017 -109.768 0 
-225.209 -115.014 0 
-217.734 -93.7763 0 
-206.363 -107.448 0 
-266.274 -124.847 0 
-258.65 -81.6018 0 
-209.45 -18.7997 0 
-214.515 -92.5043 0 
-198.445 -42.5557 0 
-239.487 -142.599 0 
-240.395 -149.402 0 
-282.748 -120.224 0 
-196.312 -71.4644 0 
-201.758 -111.295 0 
-216.463 -68.9155 0 
-193.906 -245.369 0 
-152.452 36.3276 0 
-263.089 -79.2885 0 
-214.578 29.782 0 
-207.923 -88.6876 0 
-262.522 -109.479 0 
-243.761 -123.694 0 
-201.218 -104.563 0 
-215.898 -247.837 0 
-222.665 -236.743 0 
-245.281 -62.0631 0 
-168.769 30.3296 0 
-237.675 -100.347 0 
-171.594 -102.375 0 
-188.007 -86.9422 0 
-200.2 -109.313 0 
-229.907 -67.4216 0 
-200.568 -96.6141 0 
-255.89 -234.102 0 
-271.821 -239.534 0 
-265.06 -255.651 0 
-220.565 -94.0631 0 
-153.588 -80.5468 0 
-203.189 -47.0727 0 
-180.412 -88.1131 0 
-227.288 -76.5514 0 
-223.713 -205.76 0 
-244.656 -58.5232 0 
-235.36 -208.336 0 
-235.888 -190.801 0 
-214.503 -132.011 0 
-241.075 -116.548 0 
-232.912 -225.137 0 
-210.518 -37.9862 0 
-177.186 -62.5957 0 
-212.915 -106.369 0 
-191.804 -106.61 0 
-211.45 -210.261 0 
-223.181 -84.3826 0 
-213.437 -89.3118 0 
-194.409 -92.6125 0 
-216.859 -40.7009 0 
-241.6 -62.109 0 
-179.916 -106.401 0 
-275.514 -230.767 0 
-225.152 -64.104 0 
-240.631 -91.1391 0 
-228.28 -71.9076 0 
-226.77 -113.33 0 
-191.81 -55.1594 0 
-184.146 -74.7516 0 
-225.09 -200.396 0 
-200.584 -187.129 0 
-252.391 -230.962 0 
-262.311 -71.8067 0 
-197.847 -229.001 0 
-219.675 -70.1805 0 
-180.978 -202.338 0 
-216.78 -172.904 0 
-204.746 -120.065 0 
-193.858 -61.942 0 
-242.733 -107.952 0 
-203.149 -237.794 0 
-230.01 -66.1925 0 
-176.835 -225.107 0 
-225.821 -191.251 0 
-230.588 -183.569 0 
-210.04 -73.2581 0 
-210.717 -224.52 0 
-239.37 -92.0784 0 
-226.562 -182.802 0 
-189.847 -118.301 0 
-223.004 -60.5875 0 
-232.562 -217.319 0 
-246.269 -56.0181 0 
-202.285 -79.1154 0 
-214.252 -81.7155 0 
-152.418 23.5877 0 
-220.862 -66.3161 0 
-220.637 -212.797 0 
-213.748 -206.193 0 
-233.698 -56.3249 0 
-210.101 -53.4048 0 
-248.535 -224.135 0 
-192.39 -198.386 0 
-207.519 -169.257 0 
-248.614 -201.887 0 
-202.743 -216.314 0 
-229.268 -205.875 0 
-259.912 -186.623 0 
-193.548 -66.547 0 
-274.399 -200.601 0 
-200.712 -60.7946 0 
-212.027 -74.8929 0 
-268.323 -91.9646 0 
-227.883 -65.9663 0 
-241.67 -66.6194 0 
-233.001 -52.9251 0 
-225.216 -49.265 0 
-202.278 -78.6506 0 
-189.098 -23.4165 0 
-217.58 -108.289 0 
-247.607 -180.31 0 
-219.786 -64.7042 0 
-150.382 -45.9873 0 
-248.287 -167.343 0 
-251.931 -152.647 0 
-209.747 -189.954 0 
-218.866 -157.87 0 
-221.085 -192.581 0 
-232.648 -183.382 0 
-235.167 -209.445 0 
-207.641 -149.02 0 
-170.063 -205.843 0 
-253.951 -172.499 0 
-222.329 -206.046 0 
-249.424 -186.424 0 
-224.966 -177.326 0 
-205.853 -191.758 0 
-233.515 -195.326 0 
-222.441 -59.9636 0 
-175.749 -70.8513 0 
-238.596 -68.1731 0 
-226.248 -174.335 0 
-207.699 -72.7905 0 
-206.24 -207.67 0 
-250.853 -202.057 0 
-169.883 -190.252 0 
-225.008 -152.537 0 
-220.351 -121.032 0 
-195.698 -185.189 0 
-222.082 -154.155 0 
-255.918 -214.827 0 
-223.489 -24.8363 0 
-242.394 -162.299 0 
-218.204 -78.1056 0 
-207.44 -54.2969 0 
-233.371 -76.3704 0 
-245.919 -201.73 0 
-219.23 -160.896 0 
-153.877 -61.8423 0 
-201.857 -173.539 0 
-220.342 -7.83507 0 
-208.736 -79.3213 0 
-217.204 -166.66 0 
-234.18 -156.024 0 
-238.749 -168.399 0 
-203.859 -190.813 0 
-244.675 -162.227 0 
-218.015 -186.75 0 
-199.637 -0.873618 0 
-210.522 -196.347 0 
-220.931 -156.331 0 
-172.811 -169.328 0 
-243.506 -190.901 0 
-196.799 -62.0645 0 
-255.812 -185.495 0 
-258.804 -24.0302 0 
-252.519 -166.636 0 
-202.792 -48.2088 0 
-224.446 -195.54 0 
-182.687 -152.291 0 
-218.877 -26.9073 0 
-137.573 42.6013 0 
-207.555 -171.942 0 
-210.848 -17.5503 0 
-234.286 -46.5983 0 
-214.527 -177.409 0 
-267.645 -180.417 0 
-230.827 -163.109 0 
-229.824 -148.073 0 
-224.157 -137.569 0 
-209.613 -173.125 0 
-219.672 -152.529 0 
-237.906 -146.601 0 
-209.66 -128.891 0 
-206.413 -127.636 0 
-221.486 -198.769 0 
-177.899 -28.8452 0 
-193.967 -172.291 0 
-210.776 -182.672 0 
-168.639 -151.183 0 
-253.113 -18.6491 0 
-219.551 -134.599 0 
-212.377 -131.837 0 
-228.175 -183.682 0 
-226.015 -121.552 0 
-215.986 -184.209 0 
-235.995 -127.9 0 
-161.445 79.3094 0 
-237.042 -9.55583 0 
-166.578 -162.033 0 
-236.268 -168.784 0 
-226.359 -167.581 0 
-200.228 -180.881 0 
-224.445 -152.475 0 
-222.051 -162.402 0 
-207.718 -145.102 0 
-255.54 -20.6491 0 
-212.107 -136.566 0 
-233.681 -162.164 0 
-183.504 -4.57282 0 
-218.463 -130.615 0 
-192.878 -178.765 0 
-222.796 -153.17 0 
-197.868 -33.0014 0 
-169.176 -49.9427 0 
-226.533 -122.975 0 
-224.678 -128.332 0 
-217.341 -166.422 0 
-211.793 -26.7142 0 
-260.156 -179.406 0 
-263.367 -143.165 0 
-221.276 -166.708 0 
-261.765 -150.591 0 
-216.084 -142.871 0 
-239.821 -124.872 0 
-213.87 -133.172 0 
-207.011 -156.909 0 
-225.775 -115.301 0 
-248.528 -103.963 0 
-248.707 -124.845 0 
-213.738 -139.638 0 
-179.933 -3.44661 0 
-213.81 -155.442 0 
-247.721 -131.771 0 
-189.849 -158.337 0 
-255.192 -145.493 0 
-186.242 -144.77 0 
-220.533 -122.826 0 
-184.042 -142.257 0 
-227.735 -135.467 0 
-158.515 96.9181 0 
-214.123 -113.783 0 
-221.219 -164.195 0 
-273.853 -110.238 0 
-251.307 -139.569 0 
-221.509 -179.002 0 
-187.395 -153.518 0 
-180.755 -150.733 0 
-175.275 24.1635 0 
-234.27 -143.432 0 
-241.08 -101.649 0 
-232.228 -132.042 0 
-175.259 119.289 0 
-247.314 -128.461 0 
-223.766 -147.652 0 
-209.807 -105.407 0 
-173.54 -69.6501 0 
-243.528 -149.063 0 
-221.877 -125.071 0 
-218.065 -240.855 0 
-203.943 -115.303 0 
-241.846 -143.51 0 
-243.305 -135.785 0 
-239.11 -131.707 0 
-195.833 -157.137 0 
-214.975 -20.5329 0 
-216.482 -157.436 0 
-269.1 -143.617 0 
-207.173 -144.237 0 
-193.459 -160.415 0 
-190.514 -125.461 0 
-230.273 -133.31 0 
-199.502 -85.0751 0 
-194.927 33.4653 0 
-184.423 17.9401 0 
-223.168 -146.457 0 
-180.316 -118.996 0 
-252.678 -133.6 0 
-234.554 -126.584 0 
-227.749 -124.496 0 
-223.909 -129.66 0 
-209.883 -237.292 0 
-285.263 -129.605 0 
-188.049 -113.468 0 
-233.847 -229.717 0 
-230.945 -107.518 0 
-226.171 -98.7617 0 
-256.49 -130.087 0 
-236.827 -96.119 0 
-215.901 -135.007 0 
-200.247 -118.331 0 
-185.647 -102.872 0 
-276.869 -237.986 0 
-181.658 -143.754 0 
-212.553 -97.446 0 
-198.096 -131.416 0 
-210.426 28.9486 0 
-210.726 -128.931 0 
-177.789 -128.527 0 
-197.878 2.33245 0 
-225.093 -159.214 0 
-210.138 -102.321 0 
-245.357 -227.9 0 
-264.062 -99.5745 0 
-187.271 -149.554 0 
-234.895 -130.715 0 
-218.126 -127.963 0 
-226.109 -28.6289 0 
-229.651 -111.538 0 
-213.659 -207.248 0 
-213.449 -100.986 0 
-229.363 -106.582 0 
-165.817 -82.1555 0 
-235.513 -103.727 0 
-188.872 -106.872 0 
-222.449 -98.8294 0 
-211.897 -101.771 0 
-189.661 27.7496 0 
-196.532 -105.775 0 
-261.921 -118.529 0 
-229.294 -259.735 0 
-238.377 -91.8269 0 
-232.242 -219.423 0 
-237.18 -60.9509 0 
-216.325 -212.407 0 
-229.874 -110.755 0 
-205.287 -112.341 0 
-254.293 -97.6034 0 
-252.516 -282.755 0 
-243.515 -138.09 0 
-236.309 -180.297 0 
-183.195 -78.0587 0 
-236.908 -124.502 0 
-208.839 -106.365 0 
-222.063 -98.3573 0 
-220.453 -56.1481 0 
-246.216 -75.7537 0 
-217.839 -66.8026 0 
-264.687 -126.638 0 
-221.795 -217.067 0 
-189.437 -113.288 0 
-211.548 -48.3417 0 
-219.347 -230.281 0 
-135.416 60.2817 0 
-157.484 -64.9718 0 
-196.839 -40.6002 0 
-230.483 -79.2488 0 
-198.688 -108.322 0 
-198.487 -143.785 0 
-201.981 -73.5711 0 
-237.597 -221.021 0 
-189.251 -63.974 0 
-188.76 -256.772 0 
-212.387 -186.243 0 
-215.298 -191.109 0 
-164.821 -92.7395 0 
-188.504 -257.33 0 
-202.429 -127.299 0 
-195.493 -75.0012 0 