<VTKFile type="UnstructuredGrid" version="0.1" byte_order="BigEndian">
  <UnstructuredGrid>
        <Piece NumberOfPoints="8000" NumberOfCells="0" Time= "0.265">      <Points>
        <DataArray name="Position" type="Float32"  NumberOfComponents= "3"  format="ascii">

83.5283 1.26556 0 
83.4469 3.7158 0 
83.6499 16.8495 0 
83.8492 34.3923 0 
81.8688 36.6552 0 
82.3475 37.4058 0 
83.9097 37.5446 0 
85.7386 0.0891922 0 
85.7828 4.05473 0 
85.7031 5.08406 0 
86.5163 3.11826 0 
85.4025 3.59391 0 
85.0849 5.65681 0 
86.4157 7.55006 0 
84.7906 26.0095 0 
84.2908 25.7331 0 
85.0927 36.2956 0 
86.7618 36.326 0 
85.8247 37.4966 0 
86.5982 39.2307 0 
88.8998 0.164724 0 
89.3315 2.64524 0 
87.7398 1.47203 0 
89.1633 2.75224 0 
88.6676 2.38099 0 
88.6851 3.15133 0 
87.4292 4.37319 0 
86.9031 5.40649 0 
88.8863 5.78756 0 
88.9705 6.9953 0 
87.2464 6.75611 0 
87.9669 4.89178 0 
88.1417 7.5482 0 
88.7476 11.4587 0 
87.3191 17.2433 0 
89.1366 19.4292 0 
86.8075 17.7877 0 
88.7885 18.5865 0 
87.7516 20.8057 0 
88.6273 23.7324 0 
86.7469 24.6368 0 
87.7751 26.3522 0 
88.3938 25.0274 0 
89.0059 28.289 0 
87.5788 28.5711 0 
89.3987 30.8294 0 
89.3135 31.5212 0 
88.8441 30.8517 0 
87.3326 34.0277 0 
88.095 34.0483 0 
88.5593 36.4473 0 
87.4617 37.8049 0 
87.987 36.6111 0 
87.1496 36.6743 0 
86.6335 36.9359 0 
87.6547 36.2787 0 
87.191 37.1892 0 
88.2688 37.7595 0 
88.6121 37.3608 0 
88.9297 38.3315 0 
91.276 1.26967 0 
90.7465 1.49297 0 
90.4404 0.391035 0 
89.4088 1.63101 0 
91.5671 1.87831 0 
90.3161 0.983883 0 
90.6443 1.90172 0 
89.4164 2.02041 0 
90.2205 1.00306 0 
90.5678 0.886622 0 
90.2587 0.263619 0 
90.4111 1.21441 0 
91.0991 0.652952 0 
89.2639 2.22187 0 
89.614 2.98097 0 
90.6815 2.92829 0 
90.0393 4.2036 0 
89.621 3.81766 0 
91.739 4.48756 0 
89.6995 6.05297 0 
91.5512 5.65096 0 
90.6751 5.32509 0 
90.724 6.84352 0 
91.2448 4.91171 0 
91.2795 8.47366 0 
89.7081 7.57543 0 
91.4498 8.33502 0 
89.3613 8.34086 0 
90.5231 7.69808 0 
91.3542 8.32599 0 
89.9865 9.26531 0 
91.211 10.6202 0 
89.8503 11.7248 0 
91.5156 10.3979 0 
91.0332 11.49 0 
89.1707 12.2108 0 
90.891 13.673 0 
91.1366 14.5312 0 
90.3268 13.4355 0 
91.2834 12.8776 0 
91.3187 12.2659 0 
89.3371 16.1308 0 
90.5549 16.6481 0 
90.8219 15.7607 0 
89.2357 17.0249 0 
90.0565 17.7026 0 
89.7716 21.5132 0 
90.9954 22.3017 0 
89.7759 20.2892 0 
90.5484 23.8658 0 
91.399 24.4217 0 
90.2874 26.587 0 
91.6316 27.3552 0 
90.1231 25.4955 0 
91.4583 26.5288 0 
90.4462 27.7171 0 
91.3254 28.8673 0 
90.1267 28.5037 0 
91.664 27.8803 0 
89.1682 28.7719 0 
91.0994 32.1326 0 
89.2749 31.9729 0 
90.2811 33.631 0 
91.8321 34.4336 0 
90.3116 31.8652 0 
90.6546 33.9228 0 
91.426 34.3405 0 
91.3217 32.133 0 
90.5183 37.7652 0 
90.8458 36.9253 0 
89.6067 36.8357 0 
90.2344 34.9936 0 
90.8257 36.012 0 
91.3486 35.0589 0 
91.3232 36.3498 0 
89.7856 36.3616 0 
89.7598 38.1335 0 
91.6413 39.6713 0 
89.6226 37.5073 0 
91.5245 36.9054 0 
91.2361 37.585 0 
90.8862 38.2205 0 
90.7262 39.2216 0 
91.1866 38.2478 0 
92.4853 0.113059 0 
92.5639 39.8657 0 
92.5608 39.6335 0 
91.6701 39.0645 0 
94.3121 1.03091 0 
91.8354 1.95359 0 
93.8923 0.223636 0 
93.8315 0.304458 0 
92.9572 38.4212 0 
94.0441 0.0598972 0 
94.0614 0.078041 0 
94.1087 0.470819 0 
92.7921 0.243371 0 
93.9645 0.152752 0 
93.262 38.4108 0 
94.0275 0.232225 0 
92.4846 1.66781 0 
94.0237 2.87497 0 
91.9951 0.143133 0 
93.1243 0.976306 0 
91.6797 4.57929 0 
92.2808 2.84702 0 
93.7239 2.0942 0 
92.6756 3.29035 0 
93.5825 2.17239 0 
92.8613 4.71836 0 
91.9875 3.45003 0 
93.7135 2.94561 0 
93.1518 2.75619 0 
93.2566 2.14293 0 
93.4121 4.2635 0 
93.5883 4.88351 0 
92.8428 4.03877 0 
93.9529 3.07146 0 
94.1205 3.87888 0 
91.6621 2.58944 0 
93.195 2.18187 0 
93.4967 3.47873 0 
92.0347 3.30231 0 
93.5122 3.34459 0 
92.5784 2.75219 0 
92.4845 4.08408 0 
93.4117 2.58715 0 
93.5062 5.72163 0 
93.998 7.61506 0 
93.014 6.79075 0 
93.5516 4.57837 0 
93.2496 5.42876 0 
93.5675 6.20678 0 
93.8895 7.12581 0 
91.9271 5.44094 0 
93.7037 6.49165 0 
92.7146 6.66575 0 
92.7503 5.8738 0 
94.28 5.07763 0 
93.3951 4.68854 0 
94.1258 6.50178 0 
92.9699 7.02709 0 
93.4612 5.23581 0 
92.3704 6.92665 0 
93.1247 6.6867 0 
93.7237 9.21963 0 
92.4472 8.53351 0 
93.4529 8.18486 0 
93.5371 8.45249 0 
92.377 7.33017 0 
92.5882 8.77898 0 
93.895 9.32193 0 
93.6565 9.40447 0 
93.8683 7.34372 0 
94.055 8.56764 0 
92.3935 9.34149 0 
91.8258 9.0734 0 
91.8845 8.60367 0 
93.5837 8.54934 0 
93.8327 9.55653 0 
93.613 8.72793 0 
91.997 8.33288 0 
92.9239 9.06988 0 
91.6887 9.32447 0 
92.7052 8.14859 0 
93.9932 7.14509 0 
92.2149 11.598 0 
92.3438 11.3237 0 
91.6348 10.995 0 
93.5946 11.3671 0 
92.0807 10.3426 0 
93.6659 10.501 0 
93.008 11.7276 0 
92.8071 10.4478 0 
94.1319 11.4396 0 
92.6386 11.3676 0 
92.9054 10.1526 0 
93.3651 11.7429 0 
93.6736 9.9204 0 
91.7272 13.1961 0 
93.6199 12.344 0 
93.5786 12.4959 0 
93.4154 14.4249 0 
93.043 12.855 0 
92.3733 12.7466 0 
94.0618 13.4058 0 
93.4546 14.0573 0 
93.2864 12.9332 0 
92.0664 13.5134 0 
92.4194 14.3635 0 
92.9862 14.5854 0 
93.7283 16.0502 0 
92.9481 15.057 0 
93.3808 16.2517 0 
93.6214 16.4872 0 
92.8435 15.7286 0 
93.2681 16.7462 0 
92.8154 15.8762 0 
94.0036 15.7247 0 
93.4003 17.4494 0 
91.748 15.2558 0 
92.0281 16.5441 0 
93.0695 18.0773 0 
93.6405 19.7694 0 
92.7254 17.6281 0 
92.4688 19.0604 0 
91.9118 17.6575 0 
91.7594 19.4905 0 
93.7507 19.0845 0 
91.9173 19.2692 0 
92.5065 18.037 0 
94.0922 17.5816 0 
93.8644 22.0946 0 
92.8786 21.0389 0 
92.6275 22.2231 0 
92.8578 20.0566 0 
93.446 24.646 0 
93.1602 23.493 0 
92.0394 24.0733 0 
92.9597 26.6541 0 
92.0916 25.923 0 
93.5988 26.1628 0 
92.3627 26.1418 0 
94.075 27.3963 0 
93.1122 28.5975 0 
93.9608 28.0704 0 
93.9271 28.3729 0 
93.601 29.0469 0 
93.6312 27.1805 0 
92.3457 29.898 0 
93.9842 29.9041 0 
92.5691 28.8593 0 
93.2978 29.0594 0 
92.2672 28.1669 0 
93.4919 28.0364 0 
92.8545 29.2517 0 
91.9025 28.5286 0 
93.7517 29.0599 0 
91.8105 31.6312 0 
93.5238 29.5823 0 
91.9464 30.692 0 
92.322 31.212 0 
93.7141 29.5298 0 
93.3755 29.6489 0 
92.0992 30.6029 0 
92.9001 32.2528 0 
91.9891 32.6367 0 
93.346 30.82 0 
93.5218 29.6899 0 
93.975 32.6591 0 
92.3936 32.2822 0 
92.235 34.3966 0 
93.198 34.0818 0 
92.132 32.8242 0 
92.7142 32.1015 0 
93.6515 32.5838 0 
92.2797 31.9579 0 
93.6019 31.7843 0 
92.4488 33.0345 0 
92.4186 31.9988 0 
92.9603 33.5084 0 
93.2792 32.8822 0 
93.8778 35.3622 0 
93.1623 33.7839 0 
92.5748 33.7349 0 
93.7426 33.5495 0 
92.4316 34.0785 0 
93.5319 34.2495 0 
94.1857 33.0851 0 
92.6605 32.331 0 
94.254 34.69 0 
92.0958 33.4994 0 
92.7601 35.1688 0 
93.0236 36.6589 0 
93.7287 34.9652 0 
92.588 35.6669 0 
92.8613 35.7682 0 
93.5806 34.3525 0 
92.9211 34.65 0 
93.1309 35.8059 0 
94.0919 36.822 0 
94.071 35.2691 0 
93.0683 37.9723 0 
92.6372 37.6555 0 
91.7581 39.2835 0 
91.8243 39.0685 0 
93.9384 38.8408 0 
92.1503 37.8314 0 
93.987 39.1943 0 
94.192 37.6873 0 
92.5605 37.7865 0 
92.3121 38.7716 0 
94.157 38.4101 0 
92.3286 37.6934 0 
93.0771 38.2623 0 
95.2202 1.17558 0 
96.4557 0.387294 0 
96.0291 1.79299 0 
96.4161 1.88714 0 
96.0631 0.668989 0 
95.4678 1.88064 0 
94.5622 1.83049 0 
95.5962 38.6928 0 
96.4181 1.28141 0 
94.9584 1.41242 0 
95.9379 1.70993 0 
96.6396 38.422 0 
96.4025 0.8599 0 
95.0584 0.191008 0 
96.571 1.464 0 
95.4989 1.31828 0 
95.4065 0.945535 0 
94.5618 38.413 0 
94.3557 1.10558 0 
96.629 39.8178 0 
96.3432 3.9804 0 
96.2672 2.36898 0 
95.4447 2.50802 0 
96.4603 3.24804 0 
96.4489 4.39555 0 
95.6373 3.3592 0 
96.6147 4.12632 0 
94.8517 3.57253 0 
96.3449 3.53921 0 
95.505 4.37542 0 
96.1536 2.40753 0 
95.8433 2.75423 0 
96.565 4.31069 0 
96.5201 4.20115 0 
95.3631 2.81573 0 
95.538 2.93673 0 
95.6925 2.07514 0 
94.5435 3.47495 0 
96.1696 4.59329 0 
96.4527 3.60331 0 
96.7176 3.90718 0 
96.446 4.63751 0 
94.4437 3.51413 0 
95.2055 3.8805 0 
95.1422 3.02124 0 
96.2071 5.97744 0 
96.7368 4.7359 0 
95.9097 6.66981 0 
94.7918 4.60249 0 
94.1654 7.01901 0 
95.48 6.84833 0 
96.3891 5.73216 0 
96.0014 6.64181 0 
95.468 7.07789 0 
96.7914 5.60865 0 
95.3501 5.75029 0 
94.7543 4.89252 0 
95.7437 6.94847 0 
96.5474 7.06765 0 
95.2129 4.62166 0 
95.6105 6.99366 0 
96.0399 6.44778 0 
96.2243 6.16767 0 
96.6095 5.74902 0 
95.5754 5.85777 0 
96.7599 6.38839 0 
94.5 6.14226 0 
95.532 5.40829 0 
95.8301 6.72461 0 
95.3365 7.0081 0 
96.1908 7.90137 0 
96.4793 7.83658 0 
95.6095 8.4667 0 
95.4147 8.97838 0 
96.7513 8.21409 0 
94.8022 9.24833 0 
96.4236 8.3643 0 
96.3528 7.74807 0 
96.4538 9.13223 0 
94.4359 8.38411 0 
94.7928 7.68213 0 
94.8365 8.30596 0 
95.141 8.48579 0 
94.1686 7.89729 0 
96.5503 7.4589 0 
95.1305 9.58609 0 
94.7105 9.53585 0 
94.3674 8.09096 0 
95.1475 8.53305 0 
95.1029 8.01862 0 
95.1385 7.3942 0 
96.1496 7.94735 0 
94.9417 10.1644 0 
94.6498 10.6281 0 
95.0836 12.3437 0 
96.5469 10.1952 0 
95.8892 11.8839 0 
95.9723 10.3188 0 
94.4167 9.76839 0 
95.007 10.3273 0 
94.3735 10.6338 0 
95.3048 11.058 0 
95.3715 10.5099 0 
95.465 11.266 0 
95.7982 10.574 0 
96.3554 12.347 0 
94.4846 9.62857 0 
94.218 11.3327 0 
94.9841 10.0898 0 
94.9454 9.83221 0 
95.8539 10.973 0 
95.2321 10.199 0 
95.7702 11.2673 0 
95.413 10.3978 0 
94.995 10.7251 0 
96.2282 9.82881 0 
96.2243 10.2359 0 
95.9853 9.89904 0 
96.7178 11.344 0 
94.1359 12.8057 0 
96.1522 14.1182 0 
94.4755 12.1746 0 
94.8125 13.2103 0 
95.8837 13.3535 0 
96.1017 12.3139 0 
96.2688 13.1555 0 
96.3683 12.8999 0 
96.3081 13.5939 0 
94.5482 14.0999 0 
95.7516 14.5323 0 
96.4663 14.0578 0 
94.58 13.6013 0 
94.9351 12.7924 0 
95.1577 14.6312 0 
95.1423 12.7323 0 
95.7539 15.5795 0 
96.3108 15.2358 0 
94.502 15.5513 0 
95.0599 15.8039 0 
95.1456 15.5273 0 
95.3128 16.6421 0 
95.2323 15.7122 0 
96.305 15.8617 0 
95.2694 16.0001 0 
95.5902 15.8967 0 
96.4863 15.8834 0 
95.9486 16.3679 0 
96.1667 15.6564 0 
95.9004 16.8478 0 
96.435 16.2569 0 
94.0529 15.8718 0 
95.0043 17.1735 0 
96.3405 15.9954 0 
95.1924 16.1283 0 
95.0991 17.0865 0 
95.6552 15.3121 0 
94.7414 16.832 0 
95.5166 17.0393 0 
94.8891 15.9815 0 
96.2775 17.0322 0 
95.9527 16.485 0 
94.736 16.081 0 
[...]
      <PointData Vectors="vector">
        <DataArray type="Float32" Name="Velocity" NumberOfComponents="3" format="ascii">

-245.409 -183.348 0 
-219.262 -137.097 0 
-231.477 -103.832 0 
-204.116 -67.0254 0 
-180.913 -28.5737 0 
-188.513 24.2936 0 
-186.138 5.36831 0 
-178.135 66.3161 0 
-203.074 -121.883 0 
-170.66 -121.526 0 
-184.308 -73.7216 0 
-191.639 -76.9658 0 
-140.094 109.874 0 
-206.12 -85.7163 0 
-171.823 -57.0237 0 
-123.641 114.549 0 
-174.711 -52.1972 0 
-171.793 -46.1499 0 
-169.753 -16.9336 0 
-167.811 3.12105 0 
-176.285 4.72451 0 
-178.554 -143.92 0 
-211.162 -117.388 0 
-189.738 -132.581 0 
-199.302 -109.343 0 
-223.455 -79.5834 0 
-147.272 97.9634 0 
-195.324 -112.198 0 
-163.24 80.6088 0 
-140.51 100.446 0 
-158.322 -79.6473 0 
-172.3 -128.148 0 
-184.274 -92.2984 0 
-165.214 -77.7001 0 
-159.279 -84.6284 0 
-180.705 -111.656 0 
-179.642 -57.2164 0 
-157.601 -68.2016 0 
-131.779 103.718 0 
-154.363 -59.6174 0 
-177.412 -65.8071 0 
-199.524 -78.5332 0 
-163.627 -79.4757 0 
-126.749 83.0691 0 
-176.079 -28.1848 0 
-148.137 -49.4075 0 
-170.105 -39.1199 0 
-155.683 -56.3339 0 
-141.936 -41.9324 0 
-171.858 -21.7003 0 
-186.17 -32.8155 0 
-170.518 0.404387 0 
-180.695 -16.7917 0 
-132.71 -0.381133 0 
-164.728 -40.4094 0 
-148.137 20.4117 0 
-133.074 15.5613 0 
-172.002 18.4736 0 
-133.543 23.6835 0 
-114.317 24.9026 0 
-181.226 -1.48963 0 
-180.17 39.6991 0 
-144.89 37.1377 0 
-169.45 -136.686 0 
-110.73 51.5619 0 
-180.968 -125.483 0 
-118.311 44.6802 0 
-189.866 -141.522 0 
-133.352 81.9498 0 
-186.27 -115.89 0 
-180.545 -122.634 0 
-161.407 -66.7836 0 
-143.669 -118.958 0 
-172.787 -141.006 0 
-180.224 -144.103 0 
-149.19 74.4985 0 
-185.269 -106.592 0 
-192.129 -142.892 0 
-135.609 83.4334 0 
-236.4 -109.654 0 
-166.635 -89.9183 0 
-168.838 -71.0913 0 
-157.863 -98.0056 0 
-151.879 -64.6377 0 
-119.009 68.8985 0 
-184.489 -120.839 0 
-173.896 -111.518 0 
-198.119 -115.265 0 
-177.013 -106.098 0 
-186.029 -75.0106 0 
-146.349 -139.859 0 
-185.596 -97.7766 0 
-159.48 -95.0233 0 
-181.269 -87.7317 0 
-187.879 -72.496 0 
-154.314 -89.3108 0 
-164.246 -115.932 0 
-146.845 -65.4571 0 
-103.538 103.295 0 
-188.823 -122.244 0 
-181.051 -104.951 0 
-156.207 -56.3382 0 
-167.15 -96.7882 0 
-152.488 -67.3608 0 
-184.771 -47.9481 0 
-164.297 -95.67 0 
-128.736 -68.1551 0 
-146.158 -84.0708 0 
-173.243 -105.956 0 
-149.831 -76.6558 0 
-162.738 -73.7579 0 
-199.912 -89.544 0 
-195.974 -78.8558 0 
-160.658 -57.4608 0 
-170.95 -76.0971 0 
-166.463 -68.9659 0 
-164.699 -75.7741 0 
-172.643 -60.5985 0 
-157.634 -58.0717 0 
-194.252 -66.6668 0 
-180.366 -40.7593 0 
-177.753 -46.4689 0 
-199.764 -69.4305 0 
-172.922 -37.7032 0 
-173.649 -49.3124 0 
-168.859 -20.6852 0 
-159.106 -53.7505 0 
-168.122 10.3774 0 
-190.774 -52.0451 0 
-168.721 -52.3905 0 
-152.455 -6.56454 0 
-181.742 -54.5738 0 
-169.969 -42.8231 0 
-199.914 -73.0789 0 
-155.772 2.88553 0 
-138.838 -45.9265 0 
-204.837 -38.0814 0 
-170.936 -39.6018 0 
-172.375 -5.10303 0 
-157.614 9.70956 0 
-154.355 18.9538 0 
-154.153 -10.2925 0 
-151.978 21.8629 0 
-149.247 -5.89819 0 
-134.824 4.48388 0 
-116.476 60.3588 0 
-139.887 -2.59345 0 
-139.493 35.4723 0 
-158.283 43.7659 0 
-132.592 -147.847 0 
-148.947 27.3809 0 
-111.046 41.9412 0 
-110.115 29.2183 0 
-125.668 20.4774 0 
-180.943 35.8199 0 
-153.545 -153.986 0 
-167.17 56.4182 0 
-83.3838 57.0811 0 
-163.073 -163.461 0 
-162.808 42.013 0 
-127.269 -158.928 0 
-168.666 27.7343 0 
-223.393 -125.239 0 
-227.679 -125.751 0 
-130.192 44.652 0 
-165.901 52.7606 0 
-154.864 -149.874 0 
-171.314 -136.127 0 
-164.411 30.7425 0 
-185.714 -133.525 0 
-163.522 76.6679 0 
-160.515 -133.703 0 
-229.679 -74.6983 0 
-210.033 -115.205 0 
-198.145 -133.168 0 
-137.416 -112.941 0 
-138.444 77.9714 0 
-183.565 -81.6696 0 
-125.548 51.3919 0 
-159.611 -106.417 0 
-187.81 -126.813 0 
-180.954 -138.391 0 
-143.217 77.6624 0 
-126.756 76.2158 0 
-129.185 -129.208 0 
-129.221 -112.937 0 
-150.007 -79.82 0 
-164.051 -105.154 0 
-163.535 -113.958 0 
-149.733 -110.504 0 
-187.396 -92.0812 0 
-130.227 81.612 0 
-163.89 -115.527 0 
-146.777 -96.809 0 
-179.279 -96.0496 0 
-131.305 64.7696 0 
-120.088 104.206 0 
-157.571 -120.879 0 
-162.307 -73.5705 0 
-138.633 -137.279 0 
-135.57 -123.741 0 
-190.041 -72.8408 0 
-168.805 -102.574 0 
-167.169 -91.699 0 
-181.105 -116.002 0 
-144.429 -102.36 0 
-168.805 -94.4444 0 
-156.87 -127.625 0 
-129.717 -108.14 0 
-176.732 -111.549 0 
-194.806 -118.467 0 
-177.934 -97.4442 0 
-149.956 -136.377 0 
-130.866 -123.548 0 
-170.11 -84.7861 0 
-151.404 -88.0883 0 
-157.93 -105.69 0 
-188.807 -75.002 0 
-155.799 -50.7384 0 
-163.683 -108.502 0 
-163.387 -62.8094 0 
-128.288 -88.5798 0 
-181.973 -64.6677 0 
-124.023 115.116 0 
-139.379 135.691 0 
-164.692 -110.212 0 
-116.375 95.9969 0 
-159.264 -62.2881 0 
-154.026 -92.7735 0 
-167.9 -104.312 0 
-159.021 -58.2907 0 
-99.7832 96.4233 0 
-152.919 -93.8516 0 
-135.432 -83.7318 0 
-158.554 -87.4389 0 
-170.811 -123.035 0 
-163.31 -104.502 0 
-163.689 -56.7401 0 
-185.708 -77.9913 0 
-168.094 -82.6323 0 
-134.893 -90.7788 0 
-184.97 -91.2017 0 
-175.899 -77.1324 0 
-155.954 -66.4649 0 
-123.103 139.782 0 
-132.895 -103.055 0 
-130.107 -71.1592 0 
-133.525 -82.8284 0 
-190.046 -83.6002 0 
-130.112 -68.4571 0 
-151.441 -47.4157 0 
-149.34 -91.6429 0 
-155.458 -86.1051 0 
-190.985 -100.024 0 
-106.517 115.154 0 
-158.411 -67.7071 0 
-138.025 -56.0371 0 
-183.252 -59.5204 0 
-185.357 -44.4002 0 
-144.299 -85.6264 0 
-204.168 -78.6447 0 
-160.264 -66.145 0 
-177.65 -101.45 0 
-145.166 -44.4584 0 
-138.301 -44.1798 0 
-168.96 -69.2652 0 
-190.689 -34.7024 0 
-203.643 -93.8548 0 
-131.194 -85.7912 0 
-151.788 -44.9184 0 
-162.318 -79.6694 0 
-168.644 -83.6296 0 
-155.97 -46.3104 0 
-140.81 -30.7529 0 
-184.902 -87.1802 0 
-139.386 -59.9864 0 
-156.543 -53.3104 0 
-137.365 -76.9981 0 
-146.36 -84.7735 0 
-163.868 -60.586 0 
-159.468 -42.4096 0 
-169.343 -83.3028 0 
-135.658 -24.767 0 
-160.71 -76.9064 0 
-139.842 -74.2687 0 
-156.698 -25.1539 0 
-172.395 -53.4767 0 
-195.065 -81.348 0 
-154.181 -51.0095 0 
-171.418 -8.02174 0 
-156.046 -71.4393 0 
-179.695 -67.6682 0 
-175.599 -71.1628 0 
-170.832 -37.1783 0 
-148.802 -18.3863 0 
-134.578 -35.6669 0 
-191.508 -36.4053 0 
-143.807 -37.0988 0 
-142.148 -80.0649 0 
-184.545 -69.8317 0 
-176.963 -27.3803 0 
-124.959 -35.3752 0 
-176.911 -52.0739 0 
-158.065 -29.1719 0 
-203.615 -15.6908 0 
-181.655 18.0947 0 
-192.997 -6.50438 0 
-172.566 -70.2285 0 
-146.349 -17.6442 0 
-183.721 30.359 0 
-133.734 -45.3809 0 
-190.145 -27.2382 0 
-176.97 -12.4567 0 
-138.318 -30.7961 0 
-164.746 -30.1627 0 
-158.498 -19.1548 0 
-125.619 -30.4266 0 
-177.704 8.60331 0 
-166.515 -31.8654 0 
-200.566 -7.37578 0 
-166.554 -4.07299 0 
-167.346 32.6176 0 
-144.588 17.8539 0 
-130.906 6.43656 0 
-110.171 -20.5652 0 
-158.677 -15.3632 0 
-167.066 4.21634 0 
-160.993 -8.80403 0 
-107.567 -6.0507 0 
-183.006 0.168364 0 
-153.311 18.0157 0 
-148.782 32.001 0 
-126.259 8.37675 0 
-139.557 32.715 0 
-145.398 -23.2306 0 
-111.852 -23.5756 0 
-104.689 27.1842 0 
-182.968 -144.434 0 
-130.046 -147.123 0 
-151.953 15.3788 0 
-143.16 -1.60731 0 
-112.493 67.8851 0 
-184.24 -149.341 0 
-174.014 -136.249 0 
-207.319 -189.189 0 
-215.528 -176.937 0 
-220.58 -135.01 0 
-177.197 -159.739 0 
-94.9707 41.5646 0 
-174.934 -169.344 0 
-117.235 19.6377 0 
-171.531 -154.345 0 
-147.379 34.8346 0 
-193.059 -183.043 0 
-149.77 -162.484 0 
-169.416 -155.978 0 
-217.605 -181.599 0 
-126.954 44.9402 0 
-139.331 -203.222 0 
-151.228 -142.934 0 
-122.649 34.2411 0 
-143.165 -140.989 0 
-115.963 42.7973 0 
-185.324 -110.558 0 
-200.293 -135.596 0 
-195.514 -125.468 0 
-207.455 -121.345 0 
-118.478 -173.815 0 
-155.956 -157.457 0 
-149.082 60.2433 0 
-176.811 -181.909 0 
-142.325 28.8755 0 
-139.001 9.75249 0 
-106.735 -143.418 0 
-185.574 -151.892 0 
-152.455 -154.034 0 
-159.667 -153.699 0 
-123.783 17.1055 0 
-213.818 -101.797 0 
-186.766 -79.8211 0 
-195.146 -122.112 0 
-198.8 -95.1365 0 
-209.503 -103.225 0 
-184.253 -106.023 0 
-179.948 -131.753 0 
-154.022 -135.718 0 
-128.596 15.9304 0 
-110.544 -107.361 0 
-184.836 -141.157 0 
-172.292 -153.621 0 
-182.391 -144.253 0 
-141.657 42.1221 0 
-168.454 -162.125 0 
-171.918 -137.396 0 
-115.618 48.0283 0 
-163.392 -150.246 0 
-142.605 56.9203 0 
-138.508 -140.666 0 
-141.056 42.2735 0 
-194.356 -100.334 0 
-207.738 -80.7819 0 
-220.797 -99.7843 0 
-192.71 -90.887 0 
-142.108 -92.7419 0 
-188.665 -140.428 0 
-179.607 -154.896 0 
-169.048 -92.3058 0 
-146.9 91.2464 0 
-125.185 -95.8157 0 
-150.692 -129.884 0 
-165.026 -171.089 0 
-168.265 -153.011 0 
-151.183 -131.029 0 
-197.395 -66.7067 0 
-215.759 -70.6031 0 
-113.791 69.6181 0 
-156.052 -111.422 0 
-200.541 -113.615 0 
-138.651 -86.2424 0 
-143.618 91.3546 0 
-150.454 -112.191 0 
-142.795 -127.365 0 
-95.2212 -120.474 0 
-169.168 -101.115 0 
-129.514 -102.581 0 
-183.695 -85.3893 0 
-166.156 -102.047 0 
-192.287 -111.019 0 
-194.543 -68.7177 0 
-173.403 -75.0353 0 
-172.79 -74.2018 0 
-185.564 -85.866 0 
-185.342 -95.6755 0 
-125.366 -98.3108 0 
-180.093 -119.224 0 
-168.016 -76.3756 0 
-134.071 -122.155 0 
-170.121 -105.469 0 
-169.856 -112.898 0 
-134.086 -110.157 0 
-164.881 -128.676 0 
-132.184 -106.154 0 
-141.036 -127.185 0 
-134.222 -70.5981 0 
-155.249 -95.2557 0 
-195.356 -118.448 0 
-120.081 -119.93 0 
-185.632 -139.136 0 
-148.201 -99.7545 0 
-169.107 -123.114 0 
-162.343 -92.3948 0 
-182.581 -105.218 0 
-182.284 -110.565 0 
-176.723 -88.0913 0 
-148.187 -99.4492 0 
-137.498 104.328 0 
-195.974 -102.866 0 
-175.548 -113.025 0 
-162.789 -124.016 0 
-182.35 -106.774 0 
-185.704 -65.1378 0 
-190.945 -62.2487 0 
-181.156 -84.3164 0 
-186.569 -72.5026 0 
-184.62 -111.811 0 
-175.062 -101.053 0 
-148.166 -108.776 0 
-176.252 -120.111 0 
-112.292 -84.6814 0 
-150.975 -99.2959 0 
-160.391 -73.2914 0 
-162.653 -111.369 0 
-131.226 -125.66 0 
-125.827 -77.9762 0 
-136.967 -102.518 0 
-121.604 -85.9446 0 
-156.615 -134.816 0 
-171.032 -114.224 0 
-174.691 -92.698 0 
-184.377 -81.3868 0 
-166.623 -76.4442 0 
-140.244 -93.6153 0 
-156.001 -128.858 0 
-170.016 -85.0822 0 
-141.161 -60.6815 0 
-153.807 -101.524 0 
-182.571 -84.4003 0 
-150.921 -94.3695 0 
-149.825 -125.237 0 
-173.159 -66.9594 0 
-160.477 -78.5742 0 
-140.935 -115.927 0 
-130.095 127.956 0 
-169.557 -108.659 0 
-184.468 -107.608 0 
-140.549 -94.0738 0 
-190.44 -42.1126 0 
-118.765 -82.0252 0 
-161.688 -65.511 0 
-164.361 -72.226 0 
-167.505 -61.2989 0 
-128.868 -83.5513 0 
-129.031 -85.16 0 
-129.458 -62.1638 0 
-126.454 120.096 0 
-166.893 -81.5065 0 
-162.471 -94.9681 0 
-161.213 -67.7701 0 
-118.942 102.541 0 
-128.791 -92.7931 0 
-122.64 -92.3381 0 
-126.432 -99.3474 0 
-154.432 -56.3046 0 
-129.789 -85.6711 0 
-140.926 -98.8714 0 
-123.077 -83.7646 0 
-161.934 -85.5164 0 
-174.789 -64.1736 0 
-153.279 -47.9465 0 
-196.511 -60.0078 0 
-191.056 -62.9618 0 
-99.6606 -81.1852 0 
-124.888 -31.4718 0 
-166.085 -60.8058 0 
-151.639 -32.2255 0 
-127.157 -74.9732 0 
-122.656 -76.1196 0 
-140.232 -51.2109 0 
-151.711 -86.873 0 
-182.725 -42.1532 0 
-196.757 -83.873 0 
-156.039 -85.7818 0 
-128.986 -48.2226 0 
-151.839 -74.9845 0 
-148.135 -70.2143 0 
-154.503 -80.1399 0 
-155.328 -45.4374 0 
-140.772 -46.8908 0 
-139.579 -82.0095 0 
-154.094 -74.096 0 
-173.271 3.51681 0 
-177.867 22.1852 0 
-122.63 -54.3244 0 
-156.762 -31.7606 0 
-164.822 -59.6088 0 
-157.531 -45.0517 0 
-176.814 -73.9677 0 
-122.51 -44.7722 0 
-182.63 -49.5988 0 
-187.665 -54.7881 0 
-148.844 -89.1794 0 
-146.398 -45.0355 0 
-133.472 -54.3772 0 
-169.425 -27.7535 0 
-144.436 -30.8687 0 
-156.821 -30.2495 0 
-150.713 -75.9485 0 
-187.563 -55.9474 0 
-128.945 -84.8916 0 
-147.791 -29.5884 0 
-165.284 -55.618 0 
-154.052 -80.3201 0 
-167.328 -63.2347 0 
-149.522 -66.0203 0 
-133.822 -48.0768 0 
-152.662 -21.1813 0 
-173.861 -54.3926 0 
-162.657 -51.7879 0 
-175.741 -47.8024 0 
-143.548 -46.0902 0 
-205.179 -20.6616 0 
-127.492 -46.7872 0 
-205.493 -50.0881 0 
-164.353 -23.1415 0 
-123.395 -47.5245 0 
-99.1842 -38.0692 0 
-168.577 -73.5442 0 
-161.566 -27.4081 0 
-140.068 -46.0154 0 
-175.8 -32.6928 0 
-193.644 5.79236 0 
-175.715 -18.4492 0 
-148.298 -34.7114 0 
-177.801 -41.0691 0 
-170.081 -28.9555 0 
-145.383 -14.9799 0 
-153.678 0.698559 0 
-142.851 -45.4951 0 
-151.953 4.95929 0 
-190.289 -10.6503 0 
-139.679 3.25301 0 
-147.947 -11.2876 0 
-152.594 -3.88114 0 
-142.141 -29.2955 0 
-174.469 -20.2983 0 
-157.796 -12.7424 0 
-151.055 19.6641 0 
-175.611 9.68152 0 
-142.315 2.38638 0 
-173.028 -15.746 0 
-180.079 -31.967 0 
-179.795 -38.353 0 
-134.806 -16.5005 0 
-158.198 -2.56028 0 
-138.146 -15.7472 0 
-161.355 -55.7143 0 
-154.978 -2.36389 0 
-170.08 -4.40397 0 
-143.338 -2.27437 0 
-183.69 -55.7409 0 
-152.757 -27.14 0 
-163.426 0.335725 0 
-153.074 -8.44526 0 
-143.941 -8.73297 0 
-173.082 -9.01997 0 
-158.855 -16.1337 0 
-143.385 -24.5177 0 
-165.399 6.09946 0 
-163.383 -3.85856 0 
-162.93 -2.68699 0 
-157.774 -31.7408 0 
-147.785 6.62439 0 
-170.575 56.2956 0 
-142.671 -54.0028 0 
-160.104 45.2993 0 
-149.382 7.98289 0 
-152.935 -41.9564 0 
-123.105 14.7313 0 
-149.928 19.0535 0 
-160.59 30.5184 0 
-96.6292 -21.6725 0 
-213.304 -9.46182 0 
-194.494 29.8397 0 
-127.368 12.9215 0 
-139.22 9.42676 0 
-109.516 7.37418 0 
-83.5581 3.92436 0 
-130.109 2.25656 0 
-142.65 11.5812 0 
-113.9 25.3932 0 
-97.6555 -3.80111 0 
-182.994 -127.082 0 
-170.281 28.8932 0 
-143.611 2.77597 0 
-110.93 29.6123 0 
-166.977 -183.482 0 
-167.624 -129.089 0 
-144.11 -12.2179 0 
-136.935 10.3379 0 
-177.642 -187.651 0 
-104.955 27.7125 0 
-138.003 51.6962 0 
-95.4868 6.25469 0 
-124.131 -178.565 0 
-187.971 -146.403 0 
-184.826 -141.903 0 
-199.323 -143.237 0 
-197.897 -132.84 0 
-200.389 -165.581 0 
-109.722 -174.473 0 
-156.966 -169.59 0 
-176.643 -200.305 0 
-123.225 -180.368 0 
-163.186 -181.104 0 
-110.822 -179.756 0 
-123.292 -174.038 0 
-180.316 -161.475 0 
-166.715 -138.81 0 
-183.645 -127.593 0 
-176.392 -143.353 0 
-167.989 -136.802 0 
-193.272 -160.742 0 
-172.302 -141.841 0 
-142.007 -158.248 0 
-140.417 -176.47 0 
-125.368 -165.897 0 
-113.596 60.6229 0 
-128.211 -163.653 0 
-104.077 62.6836 0 
-120.086 0.9946 0 
-141.615 -148.797 0 
-142.965 -187.07 0 
-146.313 -152.537 0 
-114.536 -166.213 0 
-130.568 23.8497 0 
-92.8441 25.6532 0 
-138.719 -151.322 0 
-111.119 35.2804 0 
-147.998 -164.673 0 
-141.709 -160.282 0 
-130.21 -181.068 0 
-162.954 -165.444 0 
-145.983 -160.512 0 
-157.224 -130.207 0 
-165.33 -106.782 0 
-170.343 -116.175 0 
-162.029 -81.0899 0 
-194.617 -139.434 0 
-191.111 -115.901 0 
-156.715 -123.899 0 
-173.176 -96.4155 0 
-205.157 -119.601 0 
-171.406 -140.258 0 
-148.173 -117.66 0 
-159.959 -169.69 0 
-124.563 -140.012 0 
-180.403 -151.96 0 
-153.796 -165.467 0 
-151.853 -102.574 0 
-128.912 -131.129 0 
-146.478 -155.183 0 
-140.331 -148.27 0 
-137.553 -157.037 0 
-167.353 -121.796 0 
-150.217 -146.278 0 
-142.371 -164.554 0 
-167.827 -117.816 0 
-159.079 -157.505 0 
-153.79 -136.964 0 
-157.253 -152.361 0 
-123.541 44.6918 0 
-160.884 -137.325 0 
-142.739 -157.252 0 
-149.829 -134.919 0 
-125.654 -150.513 0 
-194.14 -80.488 0 
-176.158 -69.1008 0 
-154.782 -93.5051 0 
-180.619 -108.948 0 
-180.617 -123.308 0 
-195.407 -119.678 0 
-162.324 -99.7383 0 
-152.677 -83.6141 0 
-196.268 -87.8038 0 
-187.357 -107.197 0 
-186.491 -131.647 0 
-202.9 -121.277 0 
-178.06 -104.951 0 
-212.096 -96.3079 0 
-175.457 -93.9665 0 
-185.88 -130.251 0 
-171.729 -132.399 0 
-193.729 -88.7191 0 
-141.637 -119.75 0 
-162.511 -129.247 0 
-128.499 -113.485 0 
-145.134 -137.684 0 
-178.18 -121.863 0 
-129.741 57.0929 0 
-107.836 69.8916 0 
-177.201 -135.946 0 
-145.063 -119.511 0 
-183.011 -137.068 0 
-153.131 -88.3553 0 
-158.945 -160.466 0 
-132.139 -133.152 0 
-176.537 -142.488 0 
-152.332 -122.456 0 
-138.5 -107.623 0 
-140.691 -118.934 0 
-143.884 -144.306 0 
-164.32 -148.675 0 
-112.881 70.0617 0 
-215.442 -154.473 0 
-146.447 -152.453 0 
-98.7415 58.3243 0 
-174.102 -139.994 0 
-192.062 -139.503 0 
-148.991 -117.863 0 
-170.826 -129.653 0 
-141.41 -123.773 0 
-179.992 -123.863 0 
-195.408 -86.1292 0 
-154.561 -107.882 0 
-97.8161 73.5338 0 
-133.528 -130.255 0 
-165.351 -120.657 0 
-134.511 -109.971 0 
-147.661 -158.154 0 
-164.16 -92.3937 0 
-163.121 -106.546 0 
-147.236 -124.157 0 
-179.099 -132.771 0 
-100.803 99.0558 0 
-173.277 -109.847 0 
-181.983 -100.568 0 
-152.181 -151.638 0 
-188.023 -97.0331 0 
-175.741 -86.1208 0 
-194.474 -91.6909 0 
-171.028 -70.5775 0 
-165.82 -79.7574 0 
-165.296 -86.163 0 
-178.666 -86.4451 0 
-168.429 -85.747 0 
-165.218 -102.131 0 
-164.963 -91.7542 0 
-167.966 -100.954 0 
-180.153 -104.272 0 
-178.07 -84.6165 0 
-171.189 -100.361 0 
-118.725 -87.4893 0 
-160.745 -136.032 0 
-170.542 -68.8778 0 
-145.448 -138.977 0 
-176.685 -117.148 0 
-128.284 -81.2824 0 
-116.104 -127.372 0 
-122.346 -127.988 0 
-169.608 -116.365 0 
-165.02 -89.8039 0 
-166.298 -134.013 0 
-135.246 -100.578 0 
-164.296 -74.7418 0 
-184.952 -132.228 0 
-120.386 -85.7132 0 
-136.737 -91.2037 0 
-164.156 -135.154 0 
-119.914 -86.5169 0 
-127.303 -123.35 0 
-96.216 -98.705 0 
-114.638 -139.824 0 
-165.44 -90.5408 0 
-149.865 -76.8934 0 
-141.095 -95.3638 0 
-136.275 -80.7062 0 
-175.866 -86.1549 0 
-111.923 -97.5517 0 
-128.687 -81.5053 0 
-135.981 -91.6415 0 
-151.735 -112.019 0 
-146.022 -98.9936 0 
-155.941 -67.4193 0 
-147.337 -132.129 0 
-95.5904 -105.39 0 
-164.961 -85.6631 0 
-88.3538 80.7822 0 
-164.882 -95.0833 0 
-160.436 -78.9348 0 
-168.478 -95.6662 0 
-166.396 -75.6018 0 
-138.107 -131.953 0 
-120.667 121.864 0 
-176.772 -116.459 0 
-149.492 -122.003 0 
-134.95 -57.8039 0 
-149.634 -124.203 0 
-124.235 -79.1487 0 
-168.319 -135.479 0 
-169.622 -97.4233 0 
-142.356 -100.782 0 
-129.574 68.4028 0 
-133.468 -102.425 0 
-144.942 83.9127 0 
-153.742 -112.833 0 
-148.219 -85.2616 0 
-172.671 -115.293 0 
-154.648 -75.3217 0 
-156.564 -87.7958 0 
-156.93 -129.197 0 
-146.87 -113.08 0 
-147.037 -61.0769 0 
-147.441 -46.6676 0 
-146.62 -84.0464 0 
-156.694 -90.9443 0 
-141.733 -59.9465 0 
-146.068 -88.7132 0 
-172.176 -79.5898 0 
-151.225 -123.537 0 
-143.674 -97.4411 0 
-103.282 -76.7736 0 
-183.564 -77.0533 0 
-155.894 -91.2781 0 
-185.021 -73.7222 0 
-155.072 -89.0578 0 
-175.74 -73.9299 0 
-155.131 -111.384 0 
-203.278 -96.4751 0 
-130.509 -104.897 0 
-192.045 -73.677 0 
-198.075 -71.4147 0 
-148.389 -92.9907 0 
-108.013 -98.9502 0 
-148.041 -73.3964 0 
-172.049 -44.3206 0 
-119.374 -62.919 0 
-142.616 -68.4304 0 
-150.21 -76.7139 0 
-128.644 -75.8991 0 
-126.054 -116.302 0 
-125.068 -112.666 0 
-122.918 -96.1655 0 
-104.265 -96.9794 0 
-140.438 -68.0784 0 
-106.947 -55.6302 0 
-224.907 -109.916 0 
-141.193 -66.8053 0 
-151.182 -111.286 0 
-138.34 -63.9449 0 
-136.163 -68.9009 0 
-97.4437 -72.9866 0 
-150.282 -87.0949 0 
-121.341 -74.3546 0 
-119.176 -69.9231 0 
-181.923 -76.9403 0 
-150.045 -97.7629 0 
-130.386 -97.1802 0 
-143.53 -91.8536 0 
-184.745 -63.5591 0 
-154.291 -74.8607 0 
-113.988 -95.4786 0 
-159.462 -84.6288 0 
-159.431 -99.4258 0 
-122.497 -96.9854 0 
-133.278 -84.5569 0 
-126.314 -93.688 0 
-126.65 -122.338 0 
-141.507 -82.3114 0 
-155.868 -104.844 0 
-168.623 -73.8313 0 
-124.136 -81.6406 0 
-131.047 -78.6922 0 
-123.569 -77.566 0 
-133.143 -84.4077 0 
-116.76 -100.488 0 
-164.58 -92.3831 0 
-187.488 -76.766 0 
-189.017 -56.7635 0 
-150.995 -88.8546 0 
-150.353 -79.0109 0 
-129.339 -92.9852 0 
-116.351 -85.7726 0 
-141.116 -81.9644 0 
-131.628 -91.9417 0 
-184.305 -74.1202 0 
-167.367 -96.5719 0 
-152.997 -104.731 0 
-161.628 -91.0139 0 
-141.868 -93.3633 0 
-105.362 100.436 0 
-190.718 -60.8797 0 
-171.573 -44.0713 0 
-186.18 -66.5731 0 
-132.266 -68.2474 0 
-167.202 -56.1855 0 
-172.94 -79.8606 0 
-153.889 -65.6799 0 
-97.8709 -86.5206 0 
-132.992 -67.7072 0 
-176.736 -77.1611 0 
-106.161 -76.3768 0 
-144.255 -83.621 0 
-137.708 -91.4605 0 
-143.071 -74.4838 0 
-135.09 -43.5056 0 
-173.277 -39.6084 0 
-146.292 -87.5217 0 
-113.075 -98.1561 0 
-161.56 -113.223 0 
-115.931 -55.1667 0 
-119.667 -90.2653 0 