<VTKFile type="UnstructuredGrid" version="0.1" byte_order="BigEndian">
  <UnstructuredGrid>
        <Piece NumberOfPoints="8000" NumberOfCells="0" Time= "0.115">      <Points>
        <DataArray name="Position" type="Float32"  NumberOfComponents= "3"  format="ascii">

108.826 11.89 0 
108.58 14.7097 0 
109.523 15.5618 0 
109.174 17.584 0 
108.978 16.7779 0 
108.752 19.5297 0 
108.657 17.689 0 
108.433 17.916 0 
108.736 19.4309 0 
108.038 18.6452 0 
109.077 19.637 0 
108.536 18.0447 0 
108.722 21.7493 0 
108.142 20.5871 0 
109.217 22.3608 0 
109.233 20.6575 0 
108.694 21.6628 0 
109.375 21.8966 0 
108.113 20.454 0 
108.735 22.5663 0 
108.036 20.2971 0 
109.41 22.0423 0 
108.731 22.9288 0 
108.136 20.5508 0 
109.397 22.5956 0 
109.485 23.0237 0 
109.17 22.9514 0 
109.454 22.0661 0 
108.596 21.0409 0 
108.666 21.2079 0 
108.79 22.8524 0 
108.733 22.2089 0 
108.235 23.0063 0 
109.598 23.4747 0 
108.962 25.0357 0 
108.233 23.4038 0 
109.028 23.0137 0 
109.394 23.0655 0 
109.115 23.5486 0 
108.767 23.4536 0 
108.289 23.329 0 
108.614 25.3848 0 
111.239 9.34954 0 
110.404 9.26345 0 
111.116 8.97803 0 
110.836 9.43673 0 
111.3 9.52868 0 
110.849 9.36787 0 
111.135 9.00376 0 
111.221 9.16811 0 
111.721 9.19952 0 
110.788 9.57775 0 
111.773 9.27915 0 
111.018 9.4501 0 
110.422 9.29655 0 
111.153 9.50415 0 
111.303 9.04975 0 
111.018 8.97376 0 
111.242 8.408 0 
110.296 9.88999 0 
111.267 11.901 0 
110.313 9.7525 0 
110.355 11.5532 0 
111.687 9.70085 0 
111.648 9.94112 0 
110.301 9.66849 0 
110.328 9.73672 0 
110.548 9.65535 0 
111.334 12.2206 0 
110.485 11.4729 0 
111.214 12.0829 0 
111.774 10.9508 0 
110.863 9.62094 0 
110.67 10.1972 0 
110.666 10.1718 0 
112.102 11.5324 0 
112.249 11.5172 0 
110.773 10.1067 0 
111.297 11.5089 0 
110.33 9.67783 0 
110.781 9.94242 0 
110.29 9.8157 0 
110.36 11.5338 0 
111.499 9.84235 0 
110.719 9.76618 0 
111.697 9.62258 0 
111.952 11.7928 0 
110.776 11.8471 0 
109.757 10.4612 0 
111.03 11.0027 0 
110.071 14.5325 0 
111.187 12.466 0 
111.27 12.2677 0 
111.141 13.7839 0 
111.535 12.5273 0 
111.661 12.5202 0 
111.102 13.807 0 
110.58 13.2981 0 
110.788 14.0976 0 
111.885 12.6211 0 
110.07 14.2686 0 
110.677 14.5015 0 
111.545 13.3566 0 
111.391 14.4183 0 
111.622 12.898 0 
112.135 13.1172 0 
110.828 14.0777 0 
110.98 13.8313 0 
111.826 14.1372 0 
111.069 13.4552 0 
110.812 14.3957 0 
110.367 14.5082 0 
111.647 12.7532 0 
111.962 12.8002 0 
111.217 13.4605 0 
110.289 13.9262 0 
111.248 12.355 0 
111.655 12.3757 0 
111.188 12.7454 0 
110.436 13.3308 0 
111.157 12.4682 0 
112.297 12.6871 0 
111.686 12.1131 0 
109.761 14.1591 0 
110.887 14.0018 0 
112.024 13.5253 0 
111.419 12.337 0 
110.067 14.4665 0 
109.911 14.4146 0 
110.269 13.9728 0 
112.235 12.6876 0 
110.024 14.558 0 
111.158 13.5127 0 
112.04 13.514 0 
110.335 14.2385 0 
111.586 12.6976 0 
111.113 13.6944 0 
110.33 13.4307 0 
111.994 12.3364 0 
111.216 13.5313 0 
111.608 12.4852 0 
111.492 13.4483 0 
110.006 14.401 0 
111.528 13.1358 0 
110.856 12.5948 0 
110.185 14.0358 0 
111.146 13.9034 0 
111.208 12.3537 0 
110.276 13.9362 0 
111.076 12.3351 0 
110.32 14.2558 0 
110.825 13.5462 0 
112.125 13.1303 0 
112.029 13.0154 0 
111.559 13.662 0 
111.79 13.1271 0 
111.439 13.9533 0 
110.696 12.9803 0 
110.482 14.088 0 
109.799 14.0322 0 
112.011 12.3742 0 
109.819 14.3553 0 
110.123 13.5359 0 
112.124 12.6122 0 
111.175 13.8219 0 
111.378 14.7266 0 
110.441 12.2583 0 
111.311 14.7443 0 
111.737 13.2585 0 
111.446 12.9658 0 
111.527 16.4237 0 
111.609 15.7907 0 
112.154 16.1736 0 
111.113 16.2091 0 
112.179 16.8375 0 
112.009 16.8111 0 
111.453 15.171 0 
111.696 15.8066 0 
110.882 15.7976 0 
111.786 15.6335 0 
111.915 17.0327 0 
111.561 16.8858 0 
111.061 15.5953 0 
110.751 16.7493 0 
111.892 15.5537 0 
112.138 16.2232 0 
111.985 16.0905 0 
112.205 16.2363 0 
112.015 16.9513 0 
111.91 15.5089 0 
111.444 16.1192 0 
110.65 15.718 0 
111.886 16.1584 0 
111.306 17.3191 0 
111.887 16.0866 0 
111.467 16.1884 0 
111.326 16.7688 0 
110.721 15.9115 0 
111.989 15.9489 0 
111.55 17.3348 0 
111.144 16.3812 0 
111.636 15.6023 0 
110.7 15.1306 0 
111.619 16.0693 0 
111.733 15.8098 0 
111.725 16.2944 0 
111.585 15.6383 0 
112.003 15.8221 0 
111.584 16.7275 0 
110.446 15.639 0 
110.488 14.982 0 
111.25 15.5554 0 
111.99 16.4356 0 
110.876 16.0713 0 
111.83 15.9966 0 
110.138 16.046 0 
111.315 16.9534 0 
111.903 15.6874 0 
111.417 15.6873 0 
111.565 15.1653 0 
112.117 15.6601 0 
109.595 15.6183 0 
110.766 15.9629 0 
111.879 17.0106 0 
111.954 15.8251 0 
111.997 16.1659 0 
110.383 14.9 0 
111.999 16.4452 0 
111.286 15.9489 0 
110.749 15.7945 0 
111.876 16.6189 0 
111.798 15.7463 0 
111.412 15.8514 0 
111.781 16.2384 0 
111.526 15.7233 0 
112.145 15.9495 0 
112.031 16.0384 0 
112.014 15.9105 0 
110.439 15.0907 0 
111.674 17.2199 0 
111.881 17.0339 0 
109.867 15.9934 0 
112.22 16.7097 0 
110.811 15.4239 0 
111.377 15.6332 0 
111.544 15.0636 0 
111.901 15.7564 0 
111.043 15.9489 0 
110.679 15.1259 0 
112.11 16.9022 0 
111.349 15.892 0 
112.013 16.8677 0 
112.134 16.7478 0 
111.2 16.9625 0 
110.627 15.8127 0 
110.639 15.1258 0 
111.787 16.1087 0 
111.151 15.8827 0 
110.793 15.1771 0 
111.855 17.0886 0 
111.13 15.9993 0 
111.033 15.8899 0 
111.347 16.0044 0 
112.039 16.7413 0 
111.865 15.8207 0 
111.428 16.7175 0 
111.642 16.785 0 
110.419 15.1764 0 
112.221 15.8857 0 
111.773 16.2622 0 
110.772 16.5609 0 
110.679 16.0016 0 
111.662 15.0644 0 
110.791 16.1497 0 
110.508 15.8067 0 
111.602 16.7228 0 
111.753 15.8089 0 
111.605 15.0006 0 
111.409 15.5523 0 
111.215 15.4874 0 
111.102 15.1769 0 
111.984 16.2648 0 
109.781 15.9756 0 
110.887 15.4492 0 
112.238 16.2568 0 
110.705 15.1603 0 
110.771 16.1156 0 
112.192 16.5494 0 
112.18 16.1787 0 
111.133 15.6621 0 
111.261 15.8893 0 
111.726 15.5582 0 
110.485 15.5923 0 
111.291 15.4842 0 
110.992 16.0396 0 
110.656 15.0465 0 
112.179 16.5462 0 
111.457 15.6041 0 
110.446 15.3351 0 
111.81 16.8538 0 
110.001 15.8521 0 
110.612 16.0539 0 
111.881 16.3557 0 
111.491 16.5724 0 
109.985 16.8404 0 
112.081 18.6044 0 
111.024 19.2683 0 
112.158 20.1343 0 
111.849 19.8007 0 
111.057 19.5332 0 
111.861 19.964 0 
111.681 18.6934 0 
112.028 18.6408 0 
109.685 19.8507 0 
111.681 18.8568 0 
110.976 19.3304 0 
111.665 18.8141 0 
111.482 19.2788 0 
112.076 19.9064 0 
111.538 18.1294 0 
111.7 18.256 0 
111.373 19.6062 0 
111.101 19.4118 0 
111.6 19.5714 0 
110.807 19.3021 0 
111.873 17.6162 0 
110.53 19.5856 0 
112.015 19.7108 0 
111.246 19.4122 0 
109.643 18.64 0 
111.93 19.7068 0 
112.082 20.0609 0 
109.879 20.0669 0 
110.622 19.5682 0 
111.641 19.8265 0 
111.24 18.9366 0 
111.869 18.6724 0 
111.018 20.056 0 
111.451 22.2428 0 
112.213 20.895 0 
111.456 22.047 0 
111.908 21.8512 0 
111.199 20.6423 0 
111.84 20.3142 0 
111.498 22.7364 0 
111.54 21.9569 0 
111.469 22.0487 0 
111.814 20.3043 0 
110.21 21.0248 0 
111.186 20.5992 0 
110.015 22.8367 0 
111.807 21.9681 0 
111.331 21.5313 0 
111.906 20.1831 0 
111.808 20.2602 0 
110.59 20.1215 0 
110.272 21.614 0 
110.671 22.1769 0 
111.68 24.253 0 
111.899 24.0825 0 
111.673 24.1105 0 
111.8 23.8082 0 
111.252 23.1606 0 
110.314 23.1867 0 
111.779 23.6262 0 
111.637 24.3431 0 
111.755 23.8111 0 
110.745 23.3295 0 
111.685 24.1111 0 
112.095 24.6389 0 
110.37 24.1203 0 
110.637 23.3233 0 
109.997 23.974 0 
110.635 23.3135 0 
112.032 24.3288 0 
110.685 23.2029 0 
110.497 23.2888 0 
110.865 23.3008 0 
111.836 24.2933 0 
111.575 24.2908 0 
111.365 24.2098 0 
111.938 24.3222 0 
111.679 24.3249 0 
111.835 24.0185 0 
109.637 24.6106 0 
110.747 23.2067 0 
109.705 23.3104 0 
111.747 23.8134 0 
111.964 24.1087 0 
111.71 24.1614 0 
110.034 23.9927 0 
110.673 23.2956 0 
111.694 24.1218 0 
110.689 23.3611 0 
111.721 23.7362 0 
111.615 24.2921 0 
111.574 23.614 0 
109.914 26.419 0 
111.142 26.4375 0 
110.812 26.3515 0 
113.44 9.47026 0 
113.471 9.36502 0 
112.996 9.10634 0 
113.41 9.47851 0 
112.379 9.21046 0 
112.888 9.19212 0 
112.441 9.14974 0 
112.264 9.07795 0 
113.068 8.44343 0 
113.834 8.47014 0 
113.67 11.3202 0 
113.025 11.3959 0 
113.558 11.0411 0 
113.075 11.365 0 
114.675 10.5808 0 
112.987 10.253 0 
113.417 11.5823 0 
113.56 11.0692 0 
112.758 11.1934 0 
113.585 12.1304 0 
113.523 11.063 0 
112.463 11.4199 0 
114.297 11.7704 0 
114.546 11.9907 0 
113.431 9.99463 0 
113.314 12.0667 0 
113.524 9.94957 0 
114.816 9.7754 0 
113.193 11.1441 0 
114.146 11.5961 0 
114.282 11.8292 0 
113.565 11.3058 0 
112.044 11.3959 0 
113.621 11.4666 0 
112.584 12.2016 0 
114.542 10.8592 0 
114.314 11.637 0 
114.757 10.7179 0 
114.191 12.0118 0 
113.591 9.80479 0 
113.44 11.3127 0 
113.512 11.523 0 
112.793 11.665 0 
113.401 10.1092 0 
113.361 11.4078 0 
113.052 11.4303 0 
112.785 11.7429 0 
113.494 12.0817 0 
114.208 10.6196 0 
112.051 11.2522 0 
114.476 11.202 0 
114.187 12.1402 0 
113.005 10.2478 0 
113.012 11.3818 0 
113.346 11.349 0 
113.869 10.0513 0 
113.572 12.1209 0 
113.263 12.279 0 
113.131 11.6709 0 
113.773 11.9305 0 
114.726 10.6009 0 
114.665 12.2824 0 
114.523 10.9503 0 
114.146 11.802 0 
114.44 10.9201 0 
112.615 11.7111 0 
113.515 11.6427 0 
113.342 11.4319 0 
113.286 12.031 0 
113.592 11.5643 0 
114.814 9.78692 0 
113.611 11.3222 0 
113.168 11.1419 0 
112.155 11.1701 0 
113.203 11.2392 0 
113.983 11.5001 0 
112.57 10.9819 0 
113.77 11.4155 0 
112.106 11.3029 0 
114.462 11.3607 0 
114.577 11.9885 0 
114.543 10.6745 0 
114.687 12.0547 0 
112.105 11.2407 0 
113.557 11.1922 0 
113.047 11.5265 0 
113.009 12.1227 0 
112.714 12.0576 0 
113.321 12.0888 0 
113.214 12.0789 0 
113.222 11.3371 0 
114.404 11.339 0 
114.3 11.5352 0 
113.529 11.6306 0 
114.585 11.048 0 
113.377 11.4481 0 
112.571 11.2122 0 
114.28 11.7586 0 
112.975 11.3424 0 
113.382 12.1063 0 
112.684 12.2768 0 
114.136 11.6171 0 
112.801 10.4619 0 
112.282 11.3214 0 
112.584 11.2086 0 
112.996 11.3527 0 
114.698 10.1439 0 
113.772 11.1633 0 
112.644 13.558 0 
114.679 12.5945 0 
114.046 14.3934 0 
112.505 12.9736 0 
112.801 13.3529 0 
112.354 12.6513 0 
112.598 13.5607 0 
112.971 12.3624 0 
112.863 12.4723 0 
113.161 12.6254 0 
[...]
      <PointData Vectors="vector">
        <DataArray type="Float32" Name="Velocity" NumberOfComponents="3" format="ascii">

-102.105 -15.1252 0 
-74.7134 -61.8178 0 
-112.522 -62.8399 0 
-106.17 -62.7053 0 
-111.923 -57.4477 0 
-110.768 -58.606 0 
-100.637 -38.4788 0 
-81.0827 -31.8146 0 
-92.7222 -35.2304 0 
-86.3363 -29.1387 0 
-82.6053 -17.3984 0 
-86.6372 -19.324 0 
-93.3083 -0.327765 0 
-112.087 13.5933 0 
-100.779 18.4962 0 
-86.4418 29.0897 0 
-114.187 33.9073 0 
-111.955 9.11102 0 
-83.3244 10.0942 0 
-111.178 61.1201 0 
-82.8399 -1.79658 0 
-98.604 37.8555 0 
-104.676 49.2738 0 
-111.216 2.08897 0 
-84.5143 69.9774 0 
-105.314 73.9277 0 
-104.842 40.2734 0 
-81.7862 64.936 0 
-111.463 1.55703 0 
-111.573 2.07003 0 
-85.2249 71.6351 0 
-111.424 1.93538 0 
-85.7192 81.4052 0 
-102.909 34.4515 0 
-87.4623 52.459 0 
-109.495 63.9628 0 
-70.5237 40.942 0 
-102.474 85.5047 0 
-74.049 91.8446 0 
-109.695 76.4734 0 
-102.107 97.4972 0 
-76.2156 81.1124 0 
-79.2159 105.004 0 
-76.5393 107.394 0 
-78.9943 102.943 0 
-102.777 92.8188 0 
-108.258 92.688 0 
-64.5302 92.2291 0 
-69.4627 69.807 0 
-106.979 100.71 0 
-102.074 -91.4184 0 
-84.6706 -84.2956 0 
-55.3041 -95.9083 0 
-50.8443 -82.3198 0 
-65.295 -83.2841 0 
-92.9295 -93.8351 0 
-69.3712 -76.4138 0 
-54.6336 -86.3171 0 
-82.1097 -80.5432 0 
-71.1215 -75.5584 0 
-76.2222 -82.5368 0 
-72.933 -77.0366 0 
-71.1531 -93.346 0 
-65.5805 -89.8523 0 
-80.0314 -92.7978 0 
-78.306 -75.6401 0 
-50.434 -76.7946 0 
-63.7802 -90.4841 0 
-63.1896 -84.7475 0 
-85.2966 -94.5226 0 
-101.934 -94.7229 0 
-85.9601 -83.3278 0 
-98.8778 -92.2007 0 
-98.3353 -97.854 0 
-85.5832 -73.9846 0 
-59.0746 -54.517 0 
-60.0509 -97.2722 0 
-64.4093 -84.1179 0 
-82.0023 -78.9148 0 
-60.3067 -93.5596 0 
-56.375 -72.7724 0 
-65.1518 -94.4249 0 
-85.8645 -82.2729 0 
-43.5304 -114.385 0 
-103.004 -48.2183 0 
-94.2017 -60.4183 0 
-95.0243 -50.1134 0 
-84.0914 -92.5287 0 
-58.384 -30.7995 0 
-84.6569 -33.5336 0 
-100.797 -60.2001 0 
-102.152 -52.2137 0 
-80.4973 -85.5359 0 
-103.725 -50.5625 0 
-85.9243 -93.8121 0 
-104.977 -40.6807 0 
-96.5766 -70.8049 0 
-68.9543 -28.547 0 
-97.7189 -50.0745 0 
-90.2461 -52.2565 0 
-102.12 -96.0499 0 
-70.5479 -47.3159 0 
-71.8963 -47.1773 0 
-94.3366 -39.6435 0 
-56.83 -52.3572 0 
-74.9366 -47.8574 0 
-93.8607 -111.014 0 
-43.3285 -70.7732 0 
-61.8252 -50.2336 0 
-99.2443 -62.0893 0 
-105.504 -75.8755 0 
-99.1361 -57.651 0 
-95.5621 -73.717 0 
-104.33 -41.4407 0 
-61.5825 -33.5718 0 
-69.7736 -82.6677 0 
-49.1625 -61.1676 0 
-88.3578 -88.326 0 
-60.3695 -77.8269 0 
-90.5255 -95.6959 0 
-79.2886 -71.418 0 
-81.0474 -59.3057 0 
-110.96 -55.2362 0 
-82.8218 -21.7435 0 
-78.5269 -45.7397 0 
-77.406 -72.5031 0 
-81.7688 -84.4861 0 
-111.498 -44.033 0 
-87.731 -73.7345 0 
-82.5573 -60.1392 0 
-104.485 -25.6367 0 
-104.246 -62.9803 0 
-79.9085 -62.8049 0 
-95.1318 -45.3884 0 
-100.845 -52.6067 0 
-58.5304 -69.6795 0 
-67.7744 -60.5698 0 
-113.947 -54.9875 0 
-77.7819 -49.8244 0 
-104.589 -61.7373 0 
-83.3973 -60.4275 0 
-58.0207 -64.1159 0 
-89.6306 -14.2459 0 
-113.182 -49.9957 0 
-93.2226 -63.6268 0 
-92.7637 -63.9838 0 
-84.4385 -83.3154 0 
-58.8202 -71.3194 0 
-63.597 -75.562 0 
-78.239 -51.5194 0 
-101.508 -64.6133 0 
-72.4384 11.4148 0 
-98.9598 -36.3147 0 
-70.7615 -61.4046 0 
-37.5152 -56.0789 0 
-90.5583 -44.9069 0 
-57.2762 -67.0991 0 
-114.019 -55.1894 0 
-62.028 -68.8278 0 
-71.3549 -66.4272 0 
-54.4554 -74.0037 0 
-104.159 -58.1743 0 
-94.5181 -48.924 0 
-88.1665 -64.4225 0 
-40.682 -56.5171 0 
-101.644 -60.6384 0 
-112.411 -48.5233 0 
-82.9635 -48.9775 0 
-71.2777 -65.9432 0 
-57.1601 -69.4803 0 
-86.9868 -60.7309 0 
-80.1701 -49.9361 0 
-113.788 -41.7685 0 
-80.5631 -13.9764 0 
-70.4289 -43.1645 0 
-98.8167 -49.4758 0 
-58.7523 -66.8716 0 
-102.626 -63.2763 0 
-75.6809 -54.251 0 
-81.2139 -54.4678 0 
-114.015 -84.0143 0 
-94.2564 -13.8004 0 
-90.8999 -64.5165 0 
-102.507 -10.2147 0 
-100.77 -73.4354 0 
-71.645 12.0143 0 
-71.0668 -68.2798 0 
-88.005 -60.3617 0 
-102.993 -10.1299 0 
-81.0119 -46.9534 0 
-68.8974 -64.6441 0 
-61.9443 -56.8881 0 
-86.8693 -63.056 0 
-74.0002 -48.4443 0 
-76.4701 -52.8835 0 
-64.3367 -54.41 0 
-64.5072 -50.5845 0 
-103.629 -20.0056 0 
-106.787 -47.7165 0 
-102.819 -56.9661 0 
-76.4682 -44.7042 0 
-89.0267 -10.1498 0 
-70.8427 -78.029 0 
-106.039 -46.7878 0 
-88.2035 -19.7596 0 
-103.152 -38.9279 0 
-109.538 -37.4814 0 
-83.5064 -48.6066 0 
-87.9904 -64.3481 0 
-76.7669 -16.3621 0 
-92.5469 -8.52249 0 
-50.7256 -20.6846 0 
-70.1814 -24.829 0 
-63.8106 -11.9755 0 
-44.7746 -5.76727 0 
-62.068 -26.4153 0 
-92.113 -19.8876 0 
-99.17 -4.74448 0 
-81.2825 -30.5653 0 
-81.8402 -9.4754 0 
-64.8275 -18.921 0 
-67.522 -16.8483 0 
-59.5669 -40.9421 0 
-43.5895 -0.319084 0 
-51.218 -34.4722 0 
-63.2835 -10.5622 0 
-45.7776 -25.3439 0 
-53.5743 -22.5457 0 
-83.4456 -17.4457 0 
-56.4421 -5.82596 0 
-83.9553 3.07636 0 
-57.7749 -19.7483 0 
-92.7571 -39.2796 0 
-64.8878 -5.0267 0 
-47.3075 -24.5541 0 
-83.4053 -20.2667 0 
-53.5027 -28.5664 0 
-61.1615 -23.1347 0 
-85.861 -7.69 0 
-72.1424 -39.7661 0 
-83.5861 -4.71272 0 
-65.6036 -20.191 0 
-60.9132 -36.4387 0 
-96.5748 -18.9096 0 
-70.537 -16.2129 0 
-58.0624 -17.3903 0 
-90.3957 -8.1311 0 
-73.2154 -2.92331 0 
-80.4756 -45.3854 0 
-92.9585 -7.02411 0 
-54.4003 -39.8055 0 
-58.3115 -10.5415 0 
-58.9892 -35.7676 0 
-66.0057 -9.7955 0 
-79.3207 -12.0995 0 
-100.392 -44.5627 0 
-85.53 -48.6947 0 
-45.5152 -16.7294 0 
-61.7082 -30.374 0 
-100.846 -6.82458 0 
-80.2527 -8.93174 0 
-74.1851 -27.9393 0 
-64.8593 12.0277 0 
-73.1564 -32.9578 0 
-59.652 -43.0592 0 
-57.7519 -12.8525 0 
-56.586 -8.07834 0 
-57.1778 -19.9321 0 
-77.7095 4.35651 0 
-102.174 -3.2468 0 
-60.0581 -13.9387 0 
-70.9499 -13.5393 0 
-66.8611 -9.59787 0 
-92.7175 16.5904 0 
-70.4805 -16.3542 0 
-86.177 3.04414 0 
-45.4571 -16.1966 0 
-88.5274 -38.1643 0 
-83.5691 -41.0289 0 
-74.093 -0.714021 0 
-80.3608 -31.6642 0 
-68.1031 -23.5062 0 
-93.9148 -17.3835 0 
-44.3696 -13.0064 0 
-71.6007 -7.89462 0 
-55.8504 -1.23429 0 
-60.8286 -35.9503 0 
-69.2222 -24.1883 0 
-64.3786 -2.61908 0 
-70.086 -16.1121 0 
-69.9415 -14.7321 0 
-72.5028 -19.2828 0 
-65.2842 -8.31806 0 
-87.3443 -41.3586 0 
-60.7208 -13.3534 0 
-60.3002 -13.9135 0 
-61.5314 -12.323 0 
-42.0871 -2.66116 0 
-52.9562 -4.71706 0 
-85.3029 -51.852 0 
-84.4344 -77.4398 0 
-59.1243 -19.1409 0 
-72.3893 -32.829 0 
-37.4653 -23.8973 0 
-65.8729 -32.7507 0 
-67.7257 -36.6626 0 
-91.7214 -46.9612 0 
-57.928 -3.72962 0 
-61.1108 -37.8511 0 
-43.8185 -28.532 0 
-53.5926 -11.6701 0 
-68.1042 -30.0094 0 
-54.7788 -5.87661 0 
-63.5566 -5.08736 0 
-69.8302 -14.9065 0 
-88.7288 -4.98441 0 
-87.3154 -42.44 0 
-93.6824 -22.2388 0 
-53.7634 -18.2491 0 
-106.87 -15.7657 0 
-81.896 -34.3879 0 
-61.3118 -14.8795 0 
-99.1364 -4.43202 0 
-45.5798 -15.6142 0 
-39.4578 -28.6609 0 
-73.3441 -31.352 0 
-113.932 -0.93155 0 
-59.991 -32.7726 0 
-44.9573 -7.50346 0 
-74.072 -24.6161 0 
-89.4306 -38.0591 0 
-59.5165 -0.882189 0 
-63.3099 -4.18551 0 
-96.8026 -43.6271 0 
-38.7479 -30.6585 0 
-71.8323 -8.06096 0 
-61.7383 -13.24 0 
-46.2082 -7.09399 0 
-103.174 -32.3728 0 
-60.2423 -22.0596 0 
-79.7569 -35.6735 0 
-90.0194 -41.9326 0 
-78.6911 -13.4511 0 
-56.9461 -43.2893 0 
-60.9556 -20.3557 0 
-64.3079 -36.615 0 
-83.6182 -24.6112 0 
-89.1524 -27.1448 0 
-64.4913 -11.2861 0 
-75.9549 -8.27744 0 
-93.5359 -70.0872 0 
-53.4881 -20.3267 0 
-90.6627 -42.0185 0 
-87.8821 -35.4457 0 
-56.2916 -1.61484 0 
-63.1992 -32.3299 0 
-86.0003 -43.4542 0 
-102.143 -10.2367 0 
-54.5186 -32.8985 0 
-109.424 -42.0751 0 
-88.5121 -68.3603 0 
-101.762 -33.158 0 
-42.1414 -49.3364 0 
-56.5519 -1.23503 0 
-70.0531 -18.4737 0 
-102.802 -29.2369 0 
-113.639 -48.9009 0 
-60.7123 -24.4203 0 
-68.4787 -12.8092 0 
-108.692 -1.70231 0 
-84.6113 -20.0658 0 
-94.342 -25.2863 0 
-73.8994 -19.6408 0 
-83.1597 -12.6079 0 
-66.6365 -18.7856 0 
-47.1064 6.94721 0 
-54.4109 -17.1468 0 
-104.696 22.2012 0 
-47.0802 40.8464 0 
-78.8202 4.90028 0 
-47.2277 42.26 0 
-96.7232 -8.31307 0 
-75.0257 -12.5387 0 
-96.2669 -5.85203 0 
-92.7703 7.26197 0 
-96.9986 2.64859 0 
-96.7689 16.0042 0 
-58.6443 30.6132 0 
-106.891 -2.72168 0 
-95.7532 -22.4518 0 
-90.5488 -4.9755 0 
-99.8558 25.4369 0 
-96.0107 -3.55693 0 
-102.235 2.95468 0 
-59.725 -7.92472 0 
-85.2122 40.2029 0 
-59.7773 32.8563 0 
-81.8068 24.4411 0 
-59.896 -0.294669 0 
-72.9194 -9.09205 0 
-71.8653 10.9298 0 
-88.5897 -20.7644 0 
-79.4775 37.7511 0 
-80.7586 10.4549 0 
-66.0217 25.8721 0 
-88.3165 -11.4165 0 
-75.6907 -24.5732 0 
-54.1188 66.4064 0 
-41.4702 63.9044 0 
-54.1987 50.8925 0 
-45.2023 57.1692 0 
-77.2714 50.4468 0 
-56.7232 29.5335 0 
-66.2102 38.4849 0 
-54.1255 53.1734 0 
-54.1686 51.9674 0 
-37.4529 39.5978 0 
-90.8989 43.9634 0 
-36.7034 51.5921 0 
-58.367 16.9466 0 
-64.9602 49.7826 0 
-67.0845 26.0449 0 
-44.6233 60.6199 0 
-42.5771 1.51721 0 
-92.8011 36.6568 0 
-57.1499 42.3597 0 
-89.3613 -28.6551 0 
-80.976 39.6825 0 
-77.0624 72.8333 0 
-106.271 19.8649 0 
-79.0956 77.5538 0 
-70.5288 71.2494 0 
-70.8744 58.2083 0 
-77.1427 71.0764 0 
-63.2855 57.4952 0 
-51.7711 82.3381 0 
-108.528 32.2416 0 
-64.3718 42.3803 0 
-72.1534 78.8798 0 
-63.4314 58.7396 0 
-111.008 33.6587 0 
-76.5805 70.348 0 
-65.0699 40.6888 0 
-106.822 84.5343 0 
-111.812 40.8112 0 
-70.6575 79.6797 0 
-111.813 40.8521 0 
-65.7245 81.289 0 
-111.908 35.3429 0 
-112.097 37.5038 0 
-103.262 41.5828 0 
-73.9471 77.8795 0 
-73.5896 78.5328 0 
-83.9479 77.2148 0 
-69.1634 80.9973 0 
-79.5092 82.0293 0 
-60.4802 72.4852 0 
-69.7509 85.5077 0 
-61.4338 63.246 0 
-49.3219 77.9324 0 
-108.242 35.1205 0 
-63.463 58.8897 0 
-64.2948 76.6527 0 
-73.6319 71.6006 0 
-109.59 79.7002 0 
-111.734 39.4018 0 
-76.5222 71.1235 0 
-108.608 40.0789 0 
-64.6447 49.7119 0 
-81.4012 54.1193 0 
-73.4577 45.2134 0 
-74.7553 107.184 0 
-96.4861 91.8846 0 
-54.7096 89.5144 0 
-31.0527 -81.2129 0 
-42.8407 -52.9923 0 
-31.1649 -77.5782 0 
-33.9431 -95.2597 0 
-52.4637 -74.5012 0 
-84.7181 -103.393 0 
-36.4177 -58.4217 0 
-45.4197 -93.6382 0 
-88.7434 -92.8239 0 
-33.5007 -79.0218 0 
-86.3271 -103.539 0 
-37.4967 -94.3984 0 
-90.0223 -103.783 0 
-56.3087 -99.4053 0 
-45.871 -93.8455 0 
-34.562 -114.108 0 
-63.274 -111.993 0 
-66.8918 -71.4137 0 
-74.7312 -60.6298 0 
-90.3202 -75.5755 0 
-66.9903 -59.8452 0 
-53.4428 -90.5928 0 
-61.4048 -85.3991 0 
-67.1074 -76.7233 0 
-73.4471 -62.8504 0 
-89.9268 -74.5375 0 
-83.0681 -70.9127 0 
-77.8311 -74.0544 0 
-97.011 -53.7339 0 
-78.3947 -76.0526 0 
-54.9089 -83.7098 0 
-52.1765 -64.1489 0 
-59.1012 -56.2269 0 
-72.8785 -47.8175 0 
-72.1011 -113.919 0 
-36.7507 -84.0996 0 
-57.885 -81.0388 0 
-55.7036 -64.6651 0 
-57.404 -82.5354 0 
-80.2087 -44.9015 0 
-57.9394 -91.8753 0 
-86.9162 -53.1278 0 
-57.5677 -34.931 0 
-51.2722 -60.6941 0 
-57.0094 -93.7733 0 
-50.6396 -94.5986 0 
-57.3405 -63.1592 0 
-81.13 -56.659 0 
-54.9101 -53.7008 0 
-61.2369 -74.0609 0 
-73.8552 -57.6868 0 
-31.1406 -77.9053 0 
-71.9849 -65.1856 0 
-72.3755 -60.1738 0 
-66.7732 -63.9362 0 
-71.5078 -55.4157 0 
-68.5808 -76.1536 0 
-91.0939 -70.6176 0 
-52.7513 -92.8077 0 
-68.4922 -64.6294 0 
-56.1553 -69.1395 0 
-55.7755 -68.6114 0 
-35.8587 -76.6555 0 
-76.2241 -61.1626 0 
-77.9656 -58.2438 0 
-84.2642 -94.0927 0 
-70.3774 -65.1538 0 
-67.4638 -94.5988 0 
-68.9019 -66.8289 0 
-81.7339 -42.5874 0 
-84.5346 -56.9106 0 
-68.8653 -56.9141 0 
-51.9665 -90.651 0 
-59.2141 -44.7426 0 
-55.3805 -56.0739 0 
-75.5745 -61.4018 0 
-56.7631 -81.2733 0 
-55.9836 -61.164 0 
-89.329 -97.1558 0 
-91.7327 -60.0253 0 
-81.104 -57.8298 0 
-72.6799 -49.9425 0 
-73.7494 -62.0824 0 
-77.0682 -57.4025 0 
-72.2476 -113.958 0 
-63.752 -85.0905 0 
-75.3513 -46.7649 0 
-62.0173 -84.5975 0 
-53.6783 -87.2316 0 
-94.3034 -76.1839 0 
-48.0249 -57.3781 0 
-73.5809 -53.6752 0 
-55.6629 -53.8831 0 
-69.9819 -62.2684 0 
-51.41 -64.0831 0 
-74.395 -39.6423 0 
-69.5845 -64.7605 0 
-59.5244 -54.3698 0 
-92.5432 -63.4671 0 
-67.8851 -75.2301 0 
-76.8843 -58.1019 0 
-50.1592 -70.8979 0 
-27.034 -78.8963 0 
-58.9782 -91.3327 0 
-93.2625 -63.2117 0 
-88.4371 -89.3436 0 
-72.6973 -46.859 0 
-66.0978 -47.6571 0 
-79.4889 -57.9412 0 
-72.8279 -62.4915 0 
-60.1038 -68.2194 0 
-70.8202 -55.5639 0 
-71.5904 -67.7277 0 
-69.3542 -69.1155 0 
-69.7362 -83.2796 0 
-79.0577 -95.9059 0 
-55.3232 -83.7766 0 
-70.9592 -61.2572 0 
-68.4779 -74.6259 0 
-97.347 -50.911 0 
-79.7833 -35.3021 0 
-58.0876 -80.9562 0 
-28.6257 -50.4028 0 
-58.9109 -51.7179 0 
-70.0748 -71.2602 0 
-83.4564 -70.6746 0 
-76.6127 -63.6319 0 
-63.3218 -81.6932 0 
-45.1272 -85.1932 0 
-87.1497 -90.1032 0 
-50.7664 -67.7465 0 
-45.8837 -57.1157 0 
-75.2094 -57.3966 0 
-73.5189 -58.532 0 
-97.505 -15.9187 0 
-51.6205 -63.8348 0 
-53.0603 -67.6557 0 
-68.7194 -73.7715 0 
-78.1708 -65.3144 0 
-90.4218 -35.1442 0 
-89.4652 -55.0039 0 
-102.777 -57.3839 0 
-70.2797 -53.1859 0 
-44.8616 -52.2871 0 
-94.3009 -15.1048 0 
-64.8913 -78.0179 0 
-88.2785 -43.139 0 
-94.3978 -56.9892 0 
-64.8352 -72.1558 0 
-75.4696 -47.634 0 
-68.5761 -53.3763 0 
-66.52 -60.72 0 
-87.931 -7.45979 0 
-75.2752 -55.7306 0 
-78.8764 -72.7316 0 
-75.2434 -71.7225 0 
-61.7062 -63.5762 0 
-87.3617 -26.5036 0 
-50.1701 -63.4565 0 
-73.8576 -57.4544 0 
-69.0328 -33.4487 0 
-63.0766 -46.8676 0 
-75.9916 -43.3587 0 
-64.4461 -50.2514 0 
-50.4163 -67.2118 0 
-74.7418 -60.9151 0 
-84.8318 -58.6978 0 
-72.0205 -70.373 0 
-46.0223 -72.868 0 
-61.4363 -69.7744 0 
-76.3927 -67.0833 0 
-33.6413 -69.1923 0 
-95.0201 -17.7524 0 
-84.0414 -43.381 0 
-69.8967 -56.3859 0 
-82.9639 -48.8585 0 
-99.3579 -44.8713 0 
-92.5393 -34.5114 0 
-49.4026 -67.3558 0 
-53.1836 -65.319 0 
-55.7352 -40.5932 0 
-76.7635 -75.0313 0 
-101.742 -32.8237 0 
-66.3048 -48.899 0 
-73.8878 -48.1862 0 
-79.4085 -53.1107 0 
-47.2056 -64.7232 0 
-45.3385 -48.4711 0 
-84.5935 -44.4899 0 
-49.6864 -66.5389 0 
-68.6039 -54.5275 0 
-84.6454 -50.0643 0 
-78.7981 -53.4921 0 
-59.3117 -56.9893 0 
-84.6885 -57.9925 0 
-39.2566 -62.9817 0 
-75.5545 -57.1999 0 
-74.2489 -73.4172 0 
-74.0197 -45.4436 0 
-69.0839 -40.1111 0 
-95.0211 -43.1743 0 
-51.7121 -63.9319 0 
-79.6069 -73.2609 0 
-54.9774 -71.2067 0 
-67.4074 -67.051 0 
-103.37 -61.5177 0 
-65.2392 -43.5897 0 
-81.715 -50.4138 0 
-36.3232 -61.2944 0 
-76.8784 -75.3272 0 
-53.8393 -44.6892 0 
-75.884 -44.3121 0 
-38.262 -46.0834 0 
-81.6067 -78.359 0 
-82.0027 -41.5464 0 
-69.7262 -60.2463 0 
-56.5049 -58.2656 0 
-50.7224 -48.9956 0 
-83.5745 -74.4199 0 
-42.863 -63.2421 0 
-73.9624 -56.6358 0 
-68.9273 -58.5718 0 
-22.5313 -53.124 0 
-76.0917 -72.1172 0 
-62.0834 -64.2366 0 
-46.3086 -77.3307 0 
-50.8531 -48.7888 0 
-55.8247 -46.9415 0 
-87.7912 -40.663 0 
-79.3933 -53.3692 0 
-77.6469 -68.0156 0 
-54.3152 -34.2159 0 
-83.8562 -0.783167 0 
-86.3394 15.7043 0 
-58.5925 5.69992 0 
-71.9016 23.6677 0 
-94.8357 -26.9114 0 
-54.091 0.636221 0 
-71.0318 5.45955 0 
-86.4685 16.8582 0 
-60.1477 1.92671 0 
-69.6212 20.2977 0 
-60.5258 -4.76486 0 
-62.559 -14.8814 0 
-46.1551 -7.89968 0 
-66.3808 -22.6489 0 
-89.0975 -48.0647 0 
-56.0184 -46.232 0 
-79.4538 -25.1598 0 
-52.8117 -29.0377 0 
-89.4979 4.43475 0 
-39.7888 -13.4695 0 
-78.1896 4.97539 0 
-31.4754 -21.06 0 
-47.6818 26.3399 0 
-45.3781 24.17 0 
-58.2194 -4.15506 0 
-74.7678 10.7104 0 
-78.8967 8.58221 0 
-84.0169 -10.3548 0 
-60.8129 -5.97253 0 
-95.4419 -20.4785 0 
-53.3786 10.4049 0 
-52.6444 -11.4629 0 
-95.0555 12.063 0 
-65.6196 -21.9402 0 
-83.8711 -20.7063 0 
-81.297 36.8512 0 
-69.9692 -7.82392 0 
-99.5954 -32.7093 0 
-27.0765 11.1876 0 
-68.2789 -0.363198 0 
-51.2759 -26.3146 0 
-57.5026 24.9481 0 
-85.0913 7.07192 0 
-97.2902 -34.5115 0 
-88.2843 -34.0623 0 
-46.3867 18.3411 0 
-67.1325 13.2555 0 
-36.8582 -3.79673 0 
-94.3859 -31.803 0 
-96.8818 -24.545 0 
-40.1856 31.1691 0 
-100.831 -29.9052 0 
-38.7996 24.3062 0 
-46.9551 7.88628 0 
-63.0904 -11.7897 0 
-94.6041 -28.8871 0 
-103.813 -48.5847 0 
-88.9752 -29.5051 0 
-68.9736 -23.2172 0 
-90.1126 2.32048 0 
-66.653 -1.42944 0 
-61.7947 -19.9828 0 
-38.3371 3.7601 0 
-53.5344 -10.9781 0 
-71.7163 28.9538 0 
-69.6483 -6.25623 0 
-57.6583 -6.66127 0 
-65.3536 -20.0312 0 
-51.8718 18.3969 0 
-37.258 -17.9867 0 
-85.7441 -4.90417 0 
-81.8788 -28.1882 0 
-99.4967 -24.2591 0 
-84.9349 20.2885 0 
-60.6949 -19.135 0 
-94.9007 -26.0701 0 
-40.5928 1.49974 0 
-39.4705 23.8963 0 
-56.3916 5.79746 0 
-59.2641 -6.97669 0 
-52.0538 -35.9676 0 
-48.0363 -21.2447 0 
-99.2132 -27.636 0 
-63.9647 0.0695679 0 
-60.0348 0.107135 0 
-39.4074 -3.67161 0 
-99.772 -16.038 0 
-45.2184 -1.95429 0 
-94.4681 -36.2004 0 
-79.9084 -5.70539 0 
-84.6427 4.11286 0 
-84.3968 12.4533 0 
-53.2592 33.7211 0 
-33.2815 15.7832 0 
-86.0446 40.1051 0 
-66.201 -25.0177 0 
-78.2756 -9.56632 0 
-60.2497 -13.4363 0 
-69.6399 -22.0577 0 
-50.9377 10.9263 0 
-63.2214 7.87072 0 
-69.6946 -9.65996 0 
-38.0546 -12.9522 0 
-97.1594 -23.9942 0 
-51.3042 -16.2124 0 
-75.3862 -6.36541 0 
-71.9244 7.73391 0 
-59.9884 -1.10293 0 
-81.6469 11.2503 0 
-55.0248 1.08226 0 
-51.5107 2.17081 0 
-52.7873 -9.01152 0 
-49.1852 2.68476 0 
-85.2622 -36.9291 0 
-78.8237 31.9226 0 
-53.8609 4.90909 0 
-76.7565 -10.8818 0 
-86.8282 -0.354598 0 
-41.1933 -57.0999 0 
-52.0763 44.1143 0 
-59.7038 -2.73552 0 
-48.7579 10.4449 0 
-56.1736 17.3687 0 
-93.3448 -51.1195 0 
-41.3434 -56.6119 0 
-54.6186 -25.4993 0 
-68.696 -28.2372 0 
-82.3994 -43.1212 0 
-98.5467 -14.6967 0 
-97.3247 -18.5344 0 
-71.5218 0.271268 0 
-59.6302 -0.542929 0 
-30.5921 -11.5497 0 
-66.9162 -5.13025 0 
-51.1222 0.358123 0 
-43.5429 17.208 0 
-55.0014 -21.4697 0 
-43.8694 -3.1391 0 
-67.1907 -19.6201 0 
-52.8524 -14.6115 0 
-88.8797 4.89282 0 
-49.0195 20.11 0 
-67.7447 15.2645 0 
-54.4281 31.2557 0 
-97.8492 -26.1029 0 
-35.0961 36.347 0 
-38.3011 11.87 0 
-71.8877 25.7243 0 
-45.776 2.93705 0 
-42.2026 6.87186 0 
-74.3487 31.841 0 
-62.2401 -44.7276 0 
-50.0751 -14.4697 0 
-58.242 6.38469 0 
-96.2642 -26.1126 0 
-76.9468 -3.29768 0 
-51.0327 1.59078 0 
-68.8888 -14.4451 0 
-60.0863 -2.45957 0 
-58.6485 -13.1395 0 
-69.6318 -8.64204 0 
-78.2768 16.4506 0 
-68.9318 -22.5872 0 
-69.26 -31.7208 0 
-82.526 -24.54 0 
-88.9162 -39.0112 0 
-62.8273 -1.66756 0 
-70.5853 9.3303 0 
-26.346 -29.4509 0 
-77.4473 -18.8805 0 
-68.8472 -4.46803 0 
-87.6454 -39.1974 0 
-68.1657 14.4947 0 
-46.2588 -5.14455 0 
-52.7305 -32.7441 0 
-66.7776 30.5954 0 
-82.7777 -61.0127 0 
-85.5366 7.60692 0 
-95.3449 -26.0402 0 
-50.618 -36.9141 0 
-65.7212 -12.7285 0 
-53.0224 -20.7067 0 
-30.241 -19.0188 0 
-95.7464 5.68657 0 
-40.0226 15.5955 0 
-86.4746 -19.3588 0 
-102.333 -52.8072 0 
-56.757 -45.1802 0 
-68.2202 -7.6051 0 
-36.7612 -20.5797 0 
-62.9353 -45.1309 0 
-50.5017 -7.52913 0 
-74.9351 -23.7014 0 
-61.2014 -33.9974 0 
-39.1352 19.3776 0 
-74.7521 -30.3958 0 
-74.1249 -48.4633 0 
-83.168 -15.4289 0 
-63.6239 -2.42147 0 
-95.4203 -44.9758 0 
-37.3843 -23.3132 0 
-74.305 3.05382 0 
-69.097 -22.0948 0 
-73.166 44.0813 0 
-69.6824 -38.163 0 
-72.7447 -4.37604 0 
-76.4777 -48.6802 0 
-56.8516 3.22018 0 
-43.2021 -19.2541 0 
-28.0483 -13.5328 0 
-67.9863 -48.6107 0 
-81.0008 -35.3694 0 
-93.5808 -41.3503 0 
-84.3339 -21.1433 0 
-42.9617 -19.3288 0 
-54.7912 -12.8823 0 
-63.9611 -32.6537 0 
-83.2185 -33.8712 0 
-54.013 -28.3131 0 
-74.2902 -48.365 0 
-69.4809 -37.4386 0 
-36.0883 -3.52598 0 
-94.349 -22.6859 0 
-71.3188 -30.2613 0 
-78.2565 -9.43157 0 
-88.6063 -26.0606 0 
-83.1597 -32.7635 0 
-44.7925 -31.3109 0 
-71.0542 -43.5235 0 
-74.9282 -19.2028 0 
-61.8992 37.791 0 
-71.7411 -30.2974 0 
-36.373 -20.4498 0 
-67.1617 -44.2574 0 
-80.5507 -30.1512 0 
-38.2735 -15.5817 0 
-38.7819 19.5898 0 
-73.0168 -44.3312 0 
-39.4998 -16.2284 0 
-73.5391 -47.3516 0 
-88.9544 -34.3306 0 
-52.4329 -23.4401 0 
-49.8317 -1.70624 0 
-50.851 23.8518 0 
-72.7025 11.8948 0 
-42.1894 -32.0121 0 
-31.8491 19.4306 0 
-103.541 21.1258 0 
-91.7421 35.0824 0 
-93.0076 40.3945 0 
-77.2378 42.3032 0 
-88.8159 39.5785 0 
-32.8553 62.3998 0 
-92.9677 37.1047 0 
-62.8212 40.1567 0 
-89.5186 48.7598 0 
-80.6446 46.9544 0 
-63.2317 7.08326 0 
-80.628 41.2334 0 