<VTKFile type="UnstructuredGrid" version="0.1" byte_order="BigEndian">
  <UnstructuredGrid>
        <Piece NumberOfPoints="8000" NumberOfCells="0" Time= "0.325">      <Points>
        <DataArray name="Position" type="Float32"  NumberOfComponents= "3"  format="ascii">

67.0404 25.5059 0 
68.4823 32.6209 0 
71.2 39.5786 0 
69.2962 29.3288 0 
71.3008 30.2552 0 
70.1794 39.2434 0 
72.7952 15.135 0 
72.4423 25.3743 0 
72.6121 29.2681 0 
73.5446 29.6907 0 
72.4413 32.7086 0 
72.6278 36.9432 0 
72.4389 38.7438 0 
73.7944 38.0639 0 
75.1145 0.0611653 0 
76.2143 2.27871 0 
76.0311 4.96133 0 
76.6363 13.1393 0 
76.3068 18.4099 0 
76.171 24.9205 0 
76.4704 25.3045 0 
74.9707 28.4435 0 
74.1602 28.1481 0 
75.1754 30.9202 0 
76.2462 30.2 0 
76.0233 32.4919 0 
74.9689 32.5024 0 
76.109 33.1114 0 
75.8464 33.5777 0 
76.3572 34.8715 0 
78.646 0.114941 0 
77.9064 2.2914 0 
78.3612 38.4028 0 
77.0348 0.37481 0 
76.9654 3.7518 0 
77.7707 3.09786 0 
78.2181 2.25481 0 
78.8842 2.59071 0 
77.4387 3.7008 0 
78.1333 4.36898 0 
78.9279 4.98858 0 
77.4532 7.01415 0 
77.9763 7.96146 0 
79.1248 10.3004 0 
77.6118 9.07911 0 
78.4162 10.7883 0 
76.9493 11.8873 0 
78.2677 11.3133 0 
78.1165 14.5019 0 
77.3144 15.5592 0 
77.6527 16.3174 0 
78.5781 19.4712 0 
78.0587 22.341 0 
78.1217 23.6298 0 
77.6647 24.786 0 
77.0862 22.5265 0 
78.0497 25.0196 0 
78.1683 24.4127 0 
77.6601 25.3842 0 
77.8055 29.103 0 
78.2759 28.4272 0 
76.9291 29.175 0 
78.939 29.2977 0 
76.783 26.8329 0 
78.128 27.2355 0 
78.6299 29.567 0 
77.5951 31.6014 0 
78.2643 30.1258 0 
78.1535 31.6588 0 
77.8048 31.6962 0 
78.8051 31.1084 0 
76.4104 32.3197 0 
78.6093 32.5392 0 
76.8852 34.37 0 
78.2121 32.3024 0 
78.6859 33.1519 0 
77.8256 33.9495 0 
78.817 36.9829 0 
79.0812 35.5943 0 
78.9532 37.7191 0 
77.9141 37.404 0 
77.5138 37.852 0 
79.1584 39.3193 0 
81.3085 1.82729 0 
80.6111 38.494 0 
80.4639 0.100029 0 
79.5918 0.558578 0 
81.2569 1.5353 0 
80.9159 2.24882 0 
80.5619 4.36239 0 
80.7447 2.94588 0 
81.2721 4.40416 0 
81.0965 4.25798 0 
79.6408 5.41993 0 
80.5527 2.61819 0 
80.2737 3.40776 0 
79.9249 2.75209 0 
80.0576 6.54082 0 
81.2157 6.39901 0 
81.3548 4.76437 0 
80.7162 5.83813 0 
81.2907 5.15029 0 
79.1697 5.9807 0 
79.1102 6.95268 0 
79.9678 9.61061 0 
80.6648 8.50254 0 
79.1968 7.42538 0 
80.1818 9.08586 0 
80.5 8.5891 0 
80.1682 8.21006 0 
81.4095 8.10094 0 
81.082 12.0299 0 
80.1062 11.6472 0 
79.1194 9.93686 0 
81.5254 11.0506 0 
81.386 10.9564 0 
79.6361 12.5045 0 
81.0698 10.3765 0 
79.8035 11.5987 0 
81.3355 14.0191 0 
80.187 13.5468 0 
81.3759 13.1729 0 
81.0121 17.1641 0 
81.1629 16.298 0 
79.46 15.5599 0 
81.2632 15.9805 0 
79.3808 16.8004 0 
80.0718 18.2406 0 
81.187 19.4771 0 
80.7464 17.9166 0 
79.5998 19.17 0 
81.7001 18.2647 0 
79.6533 18.6697 0 
79.9442 19.7165 0 
80.4389 22.4214 0 
79.5014 21.9779 0 
81.0267 21.4357 0 
79.7068 21.0747 0 
79.1011 20.5598 0 
80.096 22.3196 0 
80.6239 24.8277 0 
80.983 22.4314 0 
81.2909 23.8519 0 
80.9237 24.2351 0 
79.1359 23.0054 0 
80.2016 23.7347 0 
80.1413 25.6136 0 
80.5116 24.7868 0 
81.4939 26.6734 0 
79.8231 26.1907 0 
79.9122 27.1955 0 
79.7757 24.7181 0 
79.2535 28.3516 0 
81.2433 27.9211 0 
80.9999 26.9911 0 
80.6176 27.7262 0 
81.4739 28.0679 0 
80.7496 29.3835 0 
79.2584 30.5508 0 
81.4042 31.7122 0 
81.0244 31.8528 0 
79.8117 31.9241 0 
81.416 30.3587 0 
79.4825 29.9066 0 
81.4621 31.0658 0 
80.1042 31.0785 0 
80.5341 30.0976 0 
81.3068 31.5883 0 
80.2026 34.2372 0 
81.4268 33.0526 0 
81.2325 34.5706 0 
78.9929 33.6309 0 
80.8909 32.8245 0 
79.3917 34.0865 0 
81.0639 34.1186 0 
80.5292 33.0855 0 
79.9541 34.2756 0 
80.6333 33.8441 0 
81.0147 32.4384 0 
81.1995 32.9903 0 
79.2369 33.9641 0 
80.576 34.9703 0 
80.4702 35.8591 0 
79.3973 34.9606 0 
80.4507 36.5241 0 
81.1208 35.0474 0 
80.7327 36.8848 0 
81.0669 37.0959 0 
79.3985 37.7275 0 
80.8476 38.1833 0 
80.0622 38.2438 0 
80.588 37.6845 0 
81.4304 38.8709 0 
79.7808 37.971 0 
82.592 1.16804 0 
83.014 2.65053 0 
81.9473 1.52923 0 
83.4643 39.9306 0 
83.8988 38.0877 0 
83.4106 2.50738 0 
82.665 1.21298 0 
83.6707 39.6984 0 
82.9418 1.37318 0 
83.91 1.071 0 
84.2838 2.20988 0 
82.9418 1.67412 0 
83.2119 0.0785986 0 
82.508 37.6489 0 
83.036 3.52926 0 
83.832 2.95728 0 
82.3744 4.60676 0 
83.0262 3.41866 0 
81.9972 4.00984 0 
82.3391 3.10198 0 
82.327 2.92844 0 
81.6391 3.07466 0 
82.7447 2.59053 0 
81.9626 3.72995 0 
81.9584 3.99176 0 
82.6277 3.00048 0 
81.7742 2.96686 0 
81.5476 4.11292 0 
82.3337 3.75139 0 
83.7375 3.9238 0 
82.2176 3.03568 0 
81.8318 2.61868 0 
83.9455 2.17763 0 
83.2005 5.41132 0 
82.2456 5.25466 0 
81.9687 5.2856 0 
82.601 6.68243 0 
82.6638 5.70229 0 
83.1403 5.48574 0 
82.2566 6.10839 0 
81.6654 7.20343 0 
82.5274 5.90237 0 
84.1689 7.07363 0 
83.7709 6.3731 0 
81.3825 4.95156 0 
82.8589 6.82847 0 
83.1933 6.63474 0 
83.3039 6.34519 0 
83.3671 4.94063 0 
83.6521 6.37737 0 
83.2382 6.04313 0 
81.5039 6.18426 0 
83.987 8.09357 0 
83.1008 8.93415 0 
83.8663 8.65086 0 
81.8186 8.42348 0 
81.8392 7.99065 0 
82.6327 9.62539 0 
83.6378 9.17776 0 
82.0831 8.85133 0 
82.9776 8.56781 0 
82.7853 10.2126 0 
82.9532 11.2734 0 
83.6586 10.2507 0 
82.8866 13.6119 0 
83.728 12.6364 0 
82.0997 14.1936 0 
82.7212 13.4927 0 
83.4162 13.7448 0 
83.2201 12.4439 0 
81.9845 17.5954 0 
83.2511 15.0001 0 
82.3961 17.4502 0 
83.7238 16.6698 0 
81.9693 16.4139 0 
81.8281 15.2929 0 
82.0091 15.7059 0 
83.587 16.423 0 
83.7208 16.5871 0 
82.8743 16.8528 0 
81.5821 15.1197 0 
81.7689 16.9051 0 
83.0693 16.927 0 
83.0591 19.0471 0 
81.4248 16.9489 0 
83.4967 17.2849 0 
83.5883 17.0955 0 
82.1697 17.4903 0 
83.937 19.036 0 
83.0886 18.7979 0 
82.8068 18.5929 0 
83.9771 20.046 0 
82.1419 18.4587 0 
82.5136 18.3892 0 
82.9359 18.9081 0 
83.2695 17.9944 0 
83.4379 17.8854 0 
83.1717 18.3868 0 
82.1366 19.8428 0 
83.3242 21.5324 0 
83.0772 19.7302 0 
82.6738 20.4214 0 
83.6446 21.0656 0 
83.2402 20.1151 0 
82.52 19.7724 0 
83.5544 19.5194 0 
83.2647 21.7322 0 
83.292 21.906 0 
83.8291 21.4153 0 
83.9869 19.6169 0 
82.3228 21.1791 0 
83.471 22.1406 0 
82.1525 24.0313 0 
83.9443 23.1749 0 
84.3215 24.7455 0 
81.9433 21.8594 0 
83.9656 22.8257 0 
83.6144 23.8832 0 
83.009 22.6851 0 
81.629 24.9316 0 
82.57 25.8112 0 
83.0407 26.544 0 
83.9221 25.2188 0 
83.673 26.0346 0 
83.3562 25.9282 0 
83.9111 25.0642 0 
81.9994 24.3084 0 
82.7261 25.7814 0 
81.8384 25.2505 0 
83.5196 27.5891 0 
82.6404 25.8334 0 
82.0083 26.2421 0 
83.4189 24.5339 0 
81.6705 28.4928 0 
82.6377 27.635 0 
82.3349 27.6116 0 
82.0813 28.2379 0 
83.2145 27.4065 0 
82.3636 27.2169 0 
81.7952 28.2368 0 
82.8801 28.1877 0 
81.7289 26.9528 0 
83.5971 28.8972 0 
82.4563 28.8775 0 
83.7537 28.9233 0 
83.6201 28.2882 0 
82.9028 27.7218 0 
82.1117 27.4943 0 
82.8461 27.8601 0 
82.9358 27.7223 0 
81.6648 29.7175 0 
83.712 30.5744 0 
83.0607 30.375 0 
82.9925 30.788 0 
83.6144 29.9414 0 
83.348 29.8618 0 
82.4886 31.4968 0 
82.7498 32.2971 0 
82.524 30.2082 0 
83.0261 31.2917 0 
81.8064 30.9147 0 
82.8125 31.1952 0 
82.826 30.809 0 
83.7743 29.4189 0 
83.2839 29.9491 0 
82.1006 29.4894 0 
82.6818 31.3275 0 
81.8568 29.5957 0 
84.0556 31.1101 0 
83.4337 33.3969 0 
82.3078 33.218 0 
83.6564 34.1995 0 
83.3324 32.1706 0 
83.6714 33.06 0 
82.0381 34.1328 0 
81.9492 32.0019 0 
83.3444 32.6383 0 
82.7472 34.2732 0 
83.0846 32.0537 0 
83.973 34.2129 0 
82.6903 33.27 0 
82.7312 32.6813 0 
82.988 36.2006 0 
83.0937 36.4355 0 
83.0779 36.4215 0 
83.194 36.6002 0 
81.7489 36.6686 0 
81.8651 36.1164 0 
83.0006 34.8396 0 
84.129 35.8225 0 
83.5749 35.3179 0 
82.4237 35.4668 0 
83.3115 36.1281 0 
83.2269 37.4854 0 
83.9668 36.6286 0 
83.3104 37.2565 0 
83.669 35.114 0 
83.7188 35.4562 0 
83.7952 38.0829 0 
83.4377 37.4541 0 
83.5415 37.1172 0 
82.8942 39.2097 0 
82.4623 39.592 0 
83.1221 37.55 0 
81.7854 37.7374 0 
82.7497 39.4274 0 
83.0431 37.8346 0 
83.8749 38.6237 0 
83.429 39.0001 0 
82.7166 37.3259 0 
81.8528 38.9044 0 
83.6349 38.4258 0 
81.7168 37.2136 0 
86.2659 0.107042 0 
86.0642 0.392098 0 
85.0729 1.26762 0 
85.0014 0.894093 0 
86.1324 1.67874 0 
86.4096 0.325319 0 
86.491 1.41795 0 
85.0925 1.43374 0 
85.9965 0.622842 0 
85.9165 1.30201 0 
85.5544 0.754418 0 
85.9582 0.759072 0 
84.4897 0.592068 0 
84.9937 1.53539 0 
84.4629 2.80523 0 
86.2291 4.09896 0 
85.9498 3.75453 0 
85.0764 4.41465 0 
85.7758 3.69676 0 
86.3662 3.62283 0 
86.1046 3.00949 0 
85.5497 3.13949 0 
85.4835 2.16918 0 
86.4757 4.27481 0 
86.1978 5.84454 0 
84.0876 6.93997 0 
86.1801 4.93923 0 
85.7975 5.12016 0 
84.4925 7.06399 0 
85.2236 5.90142 0 
85.8998 5.55804 0 
85.6986 5.97462 0 
84.4547 6.53054 0 
86.1369 6.80855 0 
84.5742 5.26065 0 
84.6979 5.3825 0 
86.126 7.19172 0 
86.0106 9.35103 0 
85.0179 9.08895 0 
85.0495 9.21625 0 
86.0386 7.47495 0 
86.5602 8.05319 0 
84.3597 8.71172 0 
84.7265 9.91643 0 
85.7979 9.10452 0 
85.0258 8.96412 0 
85.1364 8.72004 0 
85.6711 7.89859 0 
86.3884 8.53088 0 
86.4585 10.4162 0 
85.6617 9.39438 0 
84.7741 11.4344 0 
85.8794 10.1043 0 
85.9774 10.2521 0 
84.6244 12.1431 0 
86.519 10.8825 0 
84.8385 12.1641 0 
84.961 10.3926 0 
85.8609 9.71015 0 
84.4063 10.4807 0 
85.1295 10.4265 0 
84.6486 11.3388 0 
86.5754 10.5415 0 
85.4271 10.5382 0 
86.1336 11.5944 0 
84.8252 12.1344 0 
85.1902 11.8068 0 
85.9093 10.9491 0 
86.6732 10.8195 0 
85.2469 12.1715 0 
84.5119 10.1053 0 
85.5325 13.1507 0 
84.9517 13.9297 0 
86.4623 12.8865 0 
84.2442 13.6363 0 
85.7952 14.1564 0 
86.4556 12.6383 0 
84.8466 12.7781 0 
84.7016 13.6594 0 
85.7011 13.0157 0 
86.324 13.6351 0 
85.9809 13.4248 0 
83.9612 12.3547 0 
85.7556 14.5677 0 
84.6513 12.3083 0 
84.7145 12.9106 0 
85.6087 14.5027 0 
86.2494 13.0365 0 
84.4995 16.3267 0 
84.7351 16.6506 0 
84.2577 14.7959 0 
84.5434 16.4746 0 
85.9966 16.3011 0 
84.8446 16.5741 0 
84.0924 15.1936 0 
86.5897 16.2731 0 
85.5226 15.2767 0 
86.324 15.9122 0 
86.1065 17.0587 0 
84.101 16.8038 0 
85.4955 15.2977 0 
86.2353 16.5818 0 
86.5016 16.6166 0 
84.151 16.2223 0 
86.5086 15.9538 0 
86.4361 15.6387 0 
85.4404 16.8652 0 
85.0992 15.5948 0 
84.2407 16.7333 0 
84.3067 18.765 0 
[...]
      <PointData Vectors="vector">
        <DataArray type="Float32" Name="Velocity" NumberOfComponents="3" format="ascii">

-247.14 -185.82 0 
-217.522 -134.619 0 
-231.477 -103.832 0 
-198.753 -7.26016 0 
-213.059 -121.915 0 
-222.551 -80.1046 0 
-178.281 72.2344 0 
-204.114 -67.0263 0 
-180.913 -28.5737 0 
-207.515 -117.122 0 
-201.988 -138.806 0 
-222.555 -121.315 0 
-178.395 34.918 0 
-184.931 -123.856 0 
-209.094 -99.2827 0 
-196.951 -77.3027 0 
-177.868 -66.2933 0 
-187.149 -53.2923 0 
-200.785 -84.5624 0 
-179.802 84.2546 0 
-162.224 -45.3943 0 
-174.952 -42.3523 0 
-144.965 101.235 0 
-140.303 100.385 0 
-131.114 115.166 0 
-184.701 -46.278 0 
-175.449 10.8143 0 
-178.729 2.25157 0 
-204.459 -135.446 0 
-185.958 -162.579 0 
-178.508 -142.889 0 
-180.362 -134.287 0 
-240.24 -142.817 0 
-220.739 -136.806 0 
-218.323 -90.0472 0 
-192.127 -123.947 0 
-210.042 -100.914 0 
-212.101 -72.0549 0 
-223.983 -114.675 0 
-201.028 -81.3146 0 
-198.711 -62.2642 0 
-238.246 -89.1828 0 
-148.64 92.606 0 
-207.529 -94.6949 0 
-229.673 -94.8733 0 
-191.281 -36.5054 0 
-201.166 -100.034 0 
-239.813 -79.0456 0 
-181.753 -43.607 0 
-198.132 -40.0571 0 
-132.67 87.9041 0 
-215.83 -58.229 0 
-206.883 -53.9804 0 
-212.075 -42.4134 0 
-183.046 -61.3061 0 
-231.347 -82.2947 0 
-186.573 -48.706 0 
-139.218 95.0758 0 
-191.426 -13.6335 0 
-197.035 -5.49789 0 
-201.429 -42.3388 0 
-133.243 82.776 0 
-169.937 -3.72829 0 
-146.203 -17.304 0 
-187.885 -4.72804 0 
-220.495 -154.055 0 
-258.095 -159.863 0 
-193.376 -158.041 0 
-240.545 -196.578 0 
-241.72 -178.334 0 
-141.935 24.9589 0 
-154.443 -0.975428 0 
-186.491 -126.761 0 
-247.052 -141.127 0 
-191.315 -128.186 0 
-174.007 -12.9191 0 
-179.505 -167.129 0 
-226.963 -145.297 0 
-238.918 -142.467 0 
-219.862 -128.099 0 
-188.093 -130.202 0 
-209.276 -12.2705 0 
-203.006 -164.854 0 
-259.637 -105.704 0 
-245.809 -95.6108 0 
-263.163 -134.907 0 
-166.83 -147.889 0 
-185.89 -140.651 0 
-178.228 -91.0236 0 
-230.026 -78.8669 0 
-194.877 -118.083 0 
-184.471 -87.4265 0 
-184.252 15.638 0 
-204.962 -91.907 0 
-177.72 61.0295 0 
-216.401 -159.495 0 
-206.222 -143.448 0 
-250.9 -99.1358 0 
-209.978 40.9267 0 
-203.529 -88.0199 0 
-179.296 -130.755 0 
-171.879 -97.4988 0 
-202.806 -80.2441 0 
-203.568 -111.73 0 
-224.017 -92.1021 0 
-183.255 -74.311 0 
-190.203 -84.3712 0 
-184.185 -91.0412 0 
-165.899 -44.7171 0 
-160.658 -57.6418 0 
-171.97 -107.657 0 
-168.55 -104.858 0 
-128.525 76.0739 0 
-238.172 -142.962 0 
-191.287 -96.4532 0 
-208.089 -56.4563 0 
-150.759 -80.1456 0 
-175.962 -65.4169 0 
-176.047 -60.8335 0 
-166.498 78.0898 0 
-207.783 -51.9242 0 
-174.87 -51.6659 0 
-137.466 92.7888 0 
-198.906 -61.0586 0 
-237.288 -96.3989 0 
-193.112 -85.1594 0 
-225.8 -62.4492 0 
-195.782 -88.0382 0 
-178.846 -87.773 0 
-222.201 -78.2573 0 
-171.483 -89.5124 0 
-235.525 -49.3475 0 
-217.055 -106.837 0 
-244.533 -98.9382 0 
-223.163 -103.256 0 
-200.306 -101.839 0 
-199.516 -79.8398 0 
-201.439 -107.159 0 
-202.997 -83.15 0 
-215.076 -61.5391 0 
-190.325 -90.6591 0 
-164.5 84.4687 0 
-163.535 59.61 0 
-174.811 -49.4592 0 
-142.438 -53.6313 0 
-190.693 -35.5987 0 
-201.945 -50.8803 0 
-208.975 -51.6705 0 
-170.538 -64.9125 0 
-223.071 -56.0317 0 
-200.637 -70.0642 0 
-167.411 -45.9773 0 
-202.069 -65.607 0 
-184.254 -75.6225 0 
-191.362 -66.4879 0 
-153.849 -4.08717 0 
-222.223 -9.63733 0 
-190.128 -57.5174 0 
-119.604 84.3603 0 
-205.973 -17.1796 0 
-186.257 12.1034 0 
-212.355 -48.4989 0 
-180.322 -34.8663 0 
-179.046 -22.441 0 
-234.29 -213.356 0 
-140.436 -161.059 0 
-202.055 1.77045 0 
-238.128 9.98586 0 
-180.598 143.362 0 
-203.056 18.2472 0 
-133.478 120.686 0 
-181.608 -12.6621 0 
-200.354 10.9608 0 
-189.607 -22.4457 0 
-192.191 -6.15713 0 
-190.255 -158.28 0 
-132.287 1.08775 0 
-186.978 25.1925 0 
-185.295 -182.996 0 
-201.398 -26.9981 0 
-154.019 13.8271 0 
-222.947 -3.39534 0 
-226.663 -185.483 0 
-169.52 3.27285 0 
-185.352 -162.209 0 
-165.032 24.635 0 
-235.345 -163.052 0 
-193.259 -138.209 0 
-245.158 -138.647 0 
-200.588 -135.626 0 
-231.786 -117.203 0 
-134.893 7.0846 0 
-207.294 -166.693 0 
-174.057 6.75543 0 
-206.206 -176.201 0 
-200.703 -157.127 0 
-227.76 -110.837 0 
-247.863 -159.723 0 
-200.151 -160.387 0 
-196.289 -146.769 0 
-161.716 37.6657 0 
-209.569 -140.574 0 
-190.343 -118.462 0 
-234.283 -159.789 0 
-219.933 -122.834 0 
-234.126 -157.128 0 
-231.611 -92.4974 0 
-236.098 -130.884 0 
-251.983 -146.306 0 
-133.578 12.1412 0 
-220.876 -116.001 0 
-156.557 10.8239 0 
-189.858 22.2426 0 
-155.577 -108.002 0 
-183.976 -1.19382 0 
-176.868 -132.997 0 
-168.495 -138.98 0 
-155.677 -141.257 0 
-198.237 -99.6098 0 
-182.568 -142.196 0 
-200.328 -124.673 0 
-199.113 -121.823 0 
-202.379 -171.121 0 
-178.925 -142.607 0 
-171.377 -167.182 0 
-208.87 -117.064 0 
-170.859 -108.092 0 
-221.89 -62.6527 0 
-139.546 26.2987 0 
-144.517 -76.6567 0 
-190.532 -56.1099 0 
-155.384 30.852 0 
-195.94 5.43038 0 
-158.887 40.8556 0 
-212.292 -103.541 0 
-202.215 27.4998 0 
-205.365 -104.801 0 
-152.279 -94.9942 0 
-192.191 -96.7992 0 
-202.501 -69.5977 0 
-176.472 -70.5792 0 
-162.252 -88.2321 0 
-178.561 -127.73 0 
-161.775 46.4811 0 
-189.12 -111.785 0 
-196.223 -87.3998 0 
-160.725 -89.5663 0 
-221.432 -76.9153 0 
-202.906 -65.2097 0 
-177.176 -44.2971 0 
-216.507 -136.713 0 
-164.641 -79.4069 0 
-171.563 86.1421 0 
-152.287 70.2426 0 
-204.283 -121.582 0 
-184.144 -73.0775 0 
-176.713 -107.943 0 
-214.63 -70.2703 0 
-124.941 48.7157 0 
-172.448 -101.022 0 
-185.117 -106.733 0 
-169.689 -99.4162 0 
-183.135 -120.83 0 
-176.259 -98.7039 0 
-248.274 -93.8612 0 
-207.862 -92.5331 0 
-224.118 -57.449 0 
-193.97 -105.843 0 
-190.347 -92.9679 0 
-159.078 101.12 0 
-186.651 -100.199 0 
-190.751 -62.4038 0 
-180.091 -47.6719 0 
-168.161 -46.1977 0 
-186.461 -47.5517 0 
-227.542 -50.5117 0 
-219.302 -84.6475 0 
-200.157 -36.5865 0 
-215.528 -82.4139 0 
-146.591 -69.3466 0 
-193.549 -49.7898 0 
-213.211 -78.3683 0 
-163.711 88.0868 0 
-204.347 -70.8853 0 
-189.424 -66.144 0 
-168.492 -67.999 0 
-128.462 101.945 0 
-178.974 -85.2986 0 
-183.1 -26.5338 0 
-172.53 -87.0007 0 
-178.663 -71.8646 0 
-159.358 -72.9206 0 
-218.599 -42.6363 0 
-155.667 82.4361 0 
-209.589 -67.6169 0 
-182.855 111.244 0 
-165.535 -47.3709 0 
-212.994 26.8483 0 
-191.284 -41.5589 0 
-159.601 -54.4089 0 
-204.661 -16.6646 0 
-180.612 -9.78752 0 
-234.914 -62.1922 0 
-137.522 101.164 0 
-208.14 -83.3586 0 
-154.179 -58.652 0 
-211.421 -13.5223 0 
-164.127 -46.4831 0 
-191.448 -50.9715 0 
-144.232 -86.5356 0 
-175.944 -58.9462 0 
-186.978 -209.013 0 
-196.124 -42.883 0 
-198.317 -41.1442 0 
-212.914 -48.013 0 
-191.696 -56.295 0 
-202.466 -32.562 0 
-195.182 -43.4679 0 
-198.141 -45.5 0 
-183.604 -49.0936 0 
-190.584 -51.8135 0 
-196.911 -179.538 0 
-170.254 9.36065 0 
-201.94 -134.202 0 
-179.702 -195.065 0 
-157.717 -211.449 0 
-126.044 97.6301 0 
-260.776 -10.4576 0 
-201.8 2.02171 0 
-202.228 -11.1299 0 
-174.168 -32.8532 0 
-225.72 -29.7935 0 
-200.543 -54.4915 0 
-191.898 -16.7716 0 
-232.915 -25.0919 0 
-195.481 4.90855 0 
-187.733 -16.1345 0 
-236.128 -192.133 0 
-211.677 -159.333 0 
-215.029 -145.375 0 
-191.775 10.5691 0 
-182.261 -173.97 0 
-201.693 -210.679 0 
-150.529 -13.8829 0 
-200.09 -173.891 0 
-172.788 -181.727 0 
-184.195 -26.4786 0 
-189.297 -190.597 0 
-149.39 -27.2992 0 
-196.444 -179.032 0 
-162.079 -178.817 0 
-175.64 -49.1636 0 
-193.889 -176.12 0 
-214.021 -145.87 0 
-194.118 -152.732 0 
-216.918 -175.588 0 
-242.098 -148.179 0 
-208.018 -139.43 0 
-187.611 -185.683 0 
-218.385 38.428 0 
-215.769 -197.36 0 
-144.935 11.3113 0 
-148.74 -150.833 0 
-165.101 2.77775 0 
-181.418 9.31588 0 
-200.801 6.8035 0 
-174.711 -175.098 0 
-166.97 21.7073 0 
-193.703 -188.074 0 
-102.624 5.99776 0 
-165.379 58.8686 0 
-153.485 -9.47173 0 
-189.602 -187.056 0 
-171.13 -177.174 0 
-185.143 -186.424 0 
-169.322 -167.775 0 
-211.246 -144.706 0 
-219.448 -126.834 0 
-192.337 -126.044 0 
-181.515 -145.456 0 
-220.562 -144.837 0 
-232.221 -121.734 0 
-170.864 -171.516 0 
-150.042 -141.888 0 
-163.81 -170.982 0 
-159.185 -28.4298 0 
-143.762 19.5333 0 
-203.685 -162.356 0 
-137.083 16.5995 0 
-209.022 -167.261 0 
-223.194 -128.883 0 
-225.488 -146.283 0 
-228.25 -141.486 0 
-217.453 -125.834 0 
-231.473 -150.654 0 
-207.959 -102.958 0 
-231.006 -137.501 0 
-238.449 -122.992 0 
-205.143 -167.709 0 
-207.483 -130.705 0 
-165.17 16.0154 0 
-151.917 -136.383 0 
-193.096 -165.399 0 
-223.929 -168.13 0 
-145.31 34.4663 0 
-125.867 24.0304 0 
-182.159 4.48417 0 
-193.482 -131.095 0 
-165.658 -130.135 0 
-141.771 -147.131 0 
-192.861 -173.368 0 
-215.302 -155.938 0 
-201.373 -114.85 0 
-239.721 -104.023 0 
-212.51 -162.583 0 
-169.341 -97.2011 0 
-221.804 -135.927 0 
-203.959 -101.171 0 
-196.663 -113.256 0 
-163.956 -162.617 0 
-195.746 -144.021 0 
-166.985 -132.158 0 
-199.704 26.9145 0 
-219.385 -146.6 0 
-172.667 6.38965 0 
-175.447 -40.0828 0 
-174.063 -131.828 0 
-199.274 -145.307 0 
-217.907 -111.606 0 
-200.416 -102.22 0 
-185.853 -167.749 0 
-142.154 -128.456 0 
-150.158 -122.38 0 
-211.87 -132.992 0 
-157.075 -120.989 0 
-201.728 -107.253 0 
-240.278 -129.9 0 
-205.171 -126.499 0 
-152.327 50.0739 0 
-164.452 -143.211 0 
-220.564 -116.786 0 
-207.775 -107.557 0 
-181.704 36.2374 0 
-208.337 -117.891 0 
-209.975 -98.7038 0 
-167.406 -128.639 0 
-177.87 -84.5529 0 
-204.556 -120.401 0 
-175.142 -96.9071 0 
-174.126 -91.8794 0 
-198.119 -126.305 0 
-185.162 -95.8575 0 
-187.369 -136.582 0 
-209.642 -97.5312 0 
-210.495 -125.507 0 
-193.342 -130.383 0 
-179.049 -100.361 0 
-170.411 -138.844 0 
-216.085 -68.2131 0 
-212.986 -105.348 0 
-249.302 -60.0463 0 
-239.574 -80.7032 0 
-222.658 -117.834 0 
-227.351 -109.377 0 
-216.655 -79.9023 0 
-227.226 -91.5814 0 
-163.614 -109.487 0 
-158.062 -111.891 0 
-169.333 -110.827 0 
-164.41 -132.276 0 
-170.462 -96.9442 0 
-179.27 28.2237 0 
-200.446 -76.1103 0 
-180.168 -86.0815 0 
-147.497 53.6414 0 
-153.473 43.2855 0 
-174.051 42.816 0 
-202.818 -113.874 0 
-203.061 -122.138 0 
-187.804 -112.219 0 
-224.138 -106.668 0 
-271.93 -107.082 0 
-152.942 -110.034 0 
-199.914 -94.9899 0 
-216.824 -90.8302 0 
-186.696 -51.7064 0 
-196.722 -119.907 0 
-143.734 -58.2604 0 
-172.814 -107.75 0 
-181.287 -112.41 0 
-221.304 -80.7289 0 
-205.98 -99.0786 0 
-183.435 -80.5208 0 
-179.567 -111.28 0 
-199.184 -117.483 0 
-195.405 -96.4035 0 
-170.425 -143.792 0 
-216.779 -118.559 0 
-200.437 -95.6619 0 
-169.858 -112.075 0 
-195.249 -107.182 0 
-219.778 -110.404 0 
-184.852 -80.2771 0 
-152.859 -62.9339 0 
-150.716 -111.765 0 
-188.244 -115.928 0 
-190.041 -91.3185 0 
-168.054 -82.6744 0 
-196.939 -121.875 0 
-182.114 -69.7843 0 
-150.085 -112.336 0 
-207.961 -81.1678 0 
-200.275 -84.2528 0 
-126.352 49.0397 0 
-181.749 -108.18 0 
-180.583 -89.6981 0 
-215.376 -106.098 0 
-169.962 -62.3927 0 
-132.667 -101.456 0 
-210.285 -80.409 0 
-154.905 -63.4412 0 
-189.345 -87.2828 0 
-176.938 -66.0594 0 
-190.223 -72.2526 0 
-208.256 -72.9214 0 
-159.817 -46.8762 0 
-134.797 -93.9519 0 
-245.875 -77.1539 0 
-149.128 -88.049 0 
-156.868 -96.2109 0 
-146.157 -60.4926 0 
-179.24 -92.0317 0 
-154.162 -58.7593 0 
-145.345 -47.7705 0 
-160.316 -71.4529 0 
-164.745 -101.928 0 
-164.273 -83.1781 0 
-176.712 -60.8879 0 
-173.717 -75.2388 0 
-171.33 -58.9114 0 
-150.95 -89.489 0 
-169.01 -89.1913 0 
-215.208 -59.4678 0 
-162.463 -57.4776 0 
-219.617 -78.2948 0 
-201.907 -76.6194 0 
-152.14 -48.1632 0 
-211.387 -68.7134 0 
-161.196 -69.3704 0 
-213.234 -94.1783 0 
-154.24 -84.6528 0 
-209.174 -56.0348 0 
-168.517 -51.1384 0 
-172.091 -90.2052 0 
-174.875 -49.8511 0 
-193.028 -71.6701 0 
-207.755 -49.6242 0 
-173.764 -39.437 0 
-219.799 -46.6752 0 
-231.263 -64.7499 0 
-156.143 -59.4554 0 
-201.343 -63.2788 0 
-157.254 -72.5682 0 
-171.506 -24.5468 0 
-200.008 -75.1062 0 
-174.159 -89.6604 0 
-196.749 -48.9284 0 
-220.342 -78.7271 0 
-112.347 109.085 0 
-138.223 -72.5522 0 
-169.046 -54.5372 0 
-192.018 -36.6394 0 
-185.896 -28.9971 0 
-189.463 18.9158 0 
-183.288 -193.226 0 
-153.336 -43.4901 0 
-167.16 -44.8564 0 
-159.432 -46.4268 0 
-197.143 -55.7849 0 
-176.324 -65.0876 0 
-209.123 -15.5482 0 
-187.253 -41.9739 0 
-202.198 -50.0801 0 
-188.348 31.0141 0 
-153.924 108.679 0 
-171.879 -42.3979 0 
-143.486 -20.8394 0 
-176.152 -33.1993 0 
-172.3 105.221 0 
-190.109 -52.2739 0 
-208.839 -145.872 0 
-178.382 8.38912 0 
-175.259 -28.6642 0 
-182.755 -55.4747 0 
-212.062 -215.767 0 
-194.515 -243.628 0 
-181.801 21.2545 0 
-172.035 1.09227 0 
-166.409 14.5571 0 
-147.229 -49.027 0 
-193.873 -205.906 0 
-147.311 -18.6225 0 
-196.801 13.4184 0 
-165.708 -179.033 0 
-138.058 -45.6779 0 
-160.758 122.196 0 
-141.174 -195.524 0 
-172.029 14.1692 0 
-192.117 3.01489 0 
-189.462 -25.4104 0 
-218.577 -10.8741 0 
-215.042 -197.332 0 
-164.695 -163.494 0 
-192.518 -183.943 0 
-133.967 -140.146 0 
-191.474 -9.0057 0 
-166.132 -31.5711 0 
-136.825 14.1079 0 
-206.038 -216.368 0 
-187.011 0.786646 0 
-202.739 -34.4484 0 
-178.774 -144.924 0 
-149.808 38.8727 0 
-149.261 -203.467 0 
-152.645 45.1935 0 
-147.43 -2.06116 0 
-189.252 9.40654 0 
-209.894 -182.495 0 
-170.34 14.178 0 
-211.005 -172.719 0 
-205.505 -186.448 0 
-141.354 -210.062 0 
-192.145 -197.981 0 
-152.502 -171.779 0 
-216.744 -161.256 0 
-202.554 -204.715 0 
-235.686 -142.714 0 
-175.033 -150.924 0 
-163.518 -194.697 0 
-146.154 -190.446 0 
-161.135 -195.518 0 
-128.373 -160.839 0 
-169.589 -32.9108 0 
-193.608 -184.706 0 
-140.647 -186.591 0 
-218.226 -166.675 0 
-165.703 -151.071 0 
-208.928 -165.549 0 
-189.377 -175.488 0 
-233.276 -149.125 0 
-209.559 -157.853 0 
-188.466 -174.425 0 
-177.777 -164.894 0 
-224.559 -122.882 0 
-214.478 -130.843 0 
-200.211 -156.594 0 
-176.349 -142.468 0 
-191.85 -168.307 0 
-215.763 -193.573 0 
-197.284 -166.507 0 
-153.527 -192.635 0 
-124.557 5.95612 0 
-164.277 -43.9707 0 
-214.261 -149.931 0 
-181.264 -189.455 0 
-206.052 17.5471 0 
-137.532 7.21945 0 
-195.608 -158.628 0 
-139.955 67.5079 0 
-207.492 -150.121 0 
-196.386 -151.26 0 
-136.97 -165.208 0 
-180.716 -157.436 0 
-181.884 -171.392 0 
-173.382 -184.619 0 
-155.171 -136.724 0 
-195.024 -134.748 0 
-221.061 -150.109 0 
-221.007 -165.935 0 
-214.483 -152.779 0 
-193.382 -167.069 0 
-212.98 -118.022 0 
-173.055 -170.188 0 
-157.115 -172.925 0 
-194.612 -151.829 0 
-165.799 -180.688 0 
-200.595 -123.591 0 
-188.827 -199.879 0 
-163.508 -131.643 0 
-166.454 -162.31 0 
-165.207 -140.484 0 
-181.685 -157.785 0 
-195.096 -160.985 0 
-171.545 -137.011 0 
-177.147 -151.712 0 
-224.156 -175.573 0 
-161.026 -161.801 0 
-183.019 -118.695 0 
-179.853 -149.938 0 
-188.087 -93.619 0 
-215.489 -138.692 0 
-176.84 -153.821 0 
-165.746 -109.565 0 
-179.383 -104.34 0 
-166.998 -145.024 0 
-168.797 -146.048 0 
-227.645 -152.802 0 
-156.709 21.3842 0 
-184.956 -154.151 0 
-182.309 -115.571 0 
-179.603 -149.977 0 
-220.508 -151.053 0 
-148.162 -124.595 0 
-177.995 -158.738 0 
-159.6 -169.042 0 
-204.083 -156.426 0 
-158.998 -137.32 0 
-160.385 -139.555 0 
-212.761 -157.401 0 
-172.73 -170.781 0 
-183.535 -155.272 0 
-210.967 -121.104 0 
-213.458 -141.697 0 
-192.847 -148.33 0 
-226.009 -127.612 0 
-200.112 -142.03 0 
-177.017 -112.719 0 
-113.47 45.3667 0 
-168.636 -122.968 0 
-171.729 -156.472 0 
-188.708 -103.57 0 
-161.519 -122.559 0 
-211.554 -137.262 0 
-199.18 -154.696 0 
-220.398 -146.673 0 
-184.948 -150.924 0 
-183.535 -152.123 0 
-166.723 -140.745 0 
-200.112 -168.529 0 
-209.26 -176.212 0 
-165.391 -121.463 0 
-178.203 29.2811 0 
-175.891 -111.353 0 
-156.329 -140.468 0 
-203.094 -115.265 0 
-253.58 -131.575 0 
-142.625 11.8769 0 
-143.753 -11.702 0 
-199.532 -124.224 0 
-144.583 -19.8273 0 
-201.755 -101.271 0 
-151.7 -11.0356 0 
-166.669 -113.947 0 
-209.313 -108.036 0 
-179.349 -106.426 0 
-207.373 -127.928 0 
-206.606 -109.016 0 
-190.742 -107.813 0 
-198.102 -96.2951 0 
-134.193 35.3523 0 
-196.792 -129.599 0 
-177.843 -112.155 0 
-186.417 -162.718 0 
-153.652 30.9808 0 
-197.345 -100.745 0 
-186.207 -145.514 0 
-220.161 -132.927 0 
-178.436 -148.511 0 
-170.423 -122.654 0 
-170.828 -100.405 0 
-179.327 -108.754 0 
-178.074 -137.434 0 
-180.283 -119.446 0 
-164.717 -114.564 0 
-175.745 -68.775 0 
-215.37 -114.481 0 
-206.149 -82.6764 0 
-207.026 -99.95 0 
-199.955 -86.2353 0 
-171.154 -95.8607 0 
-178.889 -113.833 0 
-176.083 -94.9525 0 
-153.828 -51.1698 0 
-144.631 -110.26 0 
-193.383 -100.767 0 
-195.056 -89.5649 0 
-199.614 -103.76 0 
-196.118 -91.2143 0 
-156.169 -102.021 0 
-136.842 26.5319 0 
-189.503 -115.594 0 
-166.028 -85.3288 0 
-207.501 -52.8141 0 
-207.18 -96.7051 0 
-223.259 -103.289 0 
-198.901 -112.728 0 
-154.521 -101.902 0 
-137.501 64.2285 0 
-148.293 -84.0476 0 
-197.961 -74.3248 0 
-202.759 -78.8288 0 
-179.246 -83.103 0 
-171.33 -84.0249 0 
-177.513 -97.5285 0 
-160.065 -119.336 0 
-180.694 -101.812 0 
-171.862 -112.642 0 
-160.73 -106.634 0 
-207.515 -99.4599 0 
-183.176 -102.183 0 
-175.796 -120.02 0 
-191.277 -113.824 0 
-237.032 -83.1906 0 
-219.428 -103.238 0 
-186.093 -113.928 0 
-204.301 -99.7996 0 
-138.252 -94.7305 0 
-168.025 -106.051 0 
-147.708 -90.4455 0 
-154.775 -123.986 0 
-193.78 -96.1525 0 
-196.872 -118.314 0 
-142.464 -87.7259 0 
-200.242 -105.398 0 
-164.39 -102.673 0 
-190.053 -78.3268 0 
-191.397 -139.217 0 
-158.324 -130.994 0 
-194.395 -101.231 0 
-167.55 -121.644 0 
-150.802 -120.605 0 
-166.494 -93.0216 0 
-184.148 -97.3733 0 
-167.792 -70.3255 0 
-141.337 -97.454 0 
-189.367 -90.02 0 
-188.208 -116.148 0 
-171.427 -90.8915 0 
-206.412 -99.4353 0 
-175.405 -120.504 0 
-175.495 -62.5735 0 
-171.809 -122.038 0 
-169.773 -71.8884 0 
-179.968 -106.331 0 
-140.484 -131.104 0 
-212.366 -81.7747 0 
-134.742 -113.714 0 
-162.411 -130.174 0 
-151.307 -92.3535 0 
-207.494 -72.7068 0 
-215.601 -87.5247 0 
-194.299 -57.352 0 
-197.814 -75.3681 0 
-121.038 -77.0355 0 
-159.184 -85.3681 0 
-177.881 -73.2419 0 
-188.101 -88.2537 0 
-209.889 -50.5727 0 
-234.456 -74.5068 0 
-109.296 91.5002 0 
-138.062 -60.4324 0 
-199.547 -91.6651 0 
-154.187 -51.2712 0 
-202.129 -54.8727 0 
-194.021 -61.7284 0 
-188.539 -80.7167 0 
-218.434 -64.3078 0 
-154.45 -49.9837 0 
-201.026 -70.857 0 
-182.961 -83.1667 0 
-203.671 -114.454 0 
-125.672 108.933 0 
-193.854 -106.512 0 
-198.318 -110.766 0 
-186.468 -66.2509 0 
-150.843 -62.613 0 
-178.8 -106.038 0 
-178.898 -95.3978 0 
-154.456 -96.7221 0 
-169.254 -93.454 0 
-183.919 -69.2809 0 
-169.582 -79.3459 0 
-113.367 78.98 0 
-172.08 -115.01 0 
-198.069 -99.5052 0 
-162.905 -34.9486 0 
-150.302 -31.8037 0 
-212.346 -73.3547 0 
-204.619 -82.0583 0 
-194.92 -55.8282 0 
-176.728 -125.442 0 
-181.109 -77.8337 0 
-188.35 -82.2833 0 
-186.017 -55.5407 0 
-219.251 -123.865 0 
-169.861 -76.6932 0 
-149.773 -108.208 0 
-197.744 -55.0863 0 
-177.664 -35.9577 0 
-200.202 -40.3204 0 
-209.664 -58.9395 0 
-205.93 -104.764 0 
-221.984 -91.8829 0 
-176.312 -82.5308 0 
-191.519 -103.909 0 
-220.628 -76.7601 0 
-198.16 -213.718 0 
-188.775 -33.3876 0 
-175.112 -200.026 0 
-179.045 -71.3441 0 
-213.407 -51.5805 0 
-149.9 76.6362 0 
-186.981 -110.806 0 
-146.051 -76.6211 0 
-193.691 77.5217 0 
-186.699 -19.3469 0 
-173.327 -57.9196 0 
-195.316 -29.5833 0 
-126.017 110.439 0 
-178.779 -16.8748 0 
-172.565 -79.7685 0 
-150.087 -58.7193 0 
-197.668 -63.9058 0 
-168.203 -22.1666 0 
-194.215 -195.002 0 
-220.775 -231.81 0 
-194.683 -45.2973 0 
-143.103 -73.322 0 
-131.149 -81.3819 0 
-147.622 -107.082 0 
-154.988 -60.726 0 
-164.587 -41.2848 0 
-147.082 -66.901 0 
-167.557 -50.4381 0 
-205.634 -74.7008 0 
-161.215 -54.9887 0 
-178.477 -52.7804 0 
-176.232 -62.4369 0 
-188.211 -24.5458 0 
-172.518 -225.353 0 
-183.863 -155.798 0 
-192.794 -174.458 0 
-188.433 -195.321 0 
-168.181 -46.7715 0 
-204.074 20.7653 0 
-167.131 -68.6633 0 
-161.543 -54.5093 0 
-157.819 -32.9586 0 
-192.937 -38.2659 0 
-211.261 -35.3035 0 
-195.288 -51.8848 0 
-179.557 -43.9544 0 
-195.457 -177.352 0 
-163.528 -63.6875 0 
-177.201 -41.7731 0 
-139.018 -18.7581 0 
-156.685 -60.2899 0 
-152.689 -52.6135 0 
-152.699 -75.267 0 
-173.079 -64.212 0 
-171.835 -25.0526 0 