<VTKFile type="UnstructuredGrid" version="0.1" byte_order="BigEndian">
  <UnstructuredGrid>
        <Piece NumberOfPoints="8000" NumberOfCells="0" Time= "0.48">      <Points>
        <DataArray name="Position" type="Float32"  NumberOfComponents= "3"  format="ascii">

28.7337 36.1963 0 
32.6033 16.5269 0 
35.5804 8.46294 0 
34.2275 13.8281 0 
38.2963 0.312383 0 
37.8707 3.1014 0 
37.0649 5.49819 0 
36.7584 9.63973 0 
38.2725 11.3093 0 
37.9459 20.2923 0 
38.5337 28.8546 0 
36.6581 34.658 0 
40.9589 38.6217 0 
39.0704 3.02082 0 
39.43 3.90309 0 
40.2365 5.41208 0 
40.1773 6.10179 0 
40.2562 4.59846 0 
39.1398 5.93171 0 
39.0697 6.21254 0 
40.4413 6.94249 0 
40.8686 11.9039 0 
41.2536 10.5095 0 
39.7986 13.1561 0 
41.0621 13.2036 0 
40.936 13.4874 0 
39.4495 15.0904 0 
40.6559 19.0302 0 
40.7539 17.7583 0 
40.0762 20.4342 0 
40.1539 22.3036 0 
40.8951 21.5191 0 
39.8312 21.7973 0 
40.4084 23.2806 0 
40.5667 26.5684 0 
38.9137 27.7168 0 
39.2424 28.1395 0 
41.281 31.3083 0 
38.6126 31.8406 0 
39.9853 33.2944 0 
40.2525 33.3056 0 
39.5446 32.5956 0 
40.5372 36.3673 0 
40.8886 35.3046 0 
39.7203 37.8374 0 
43.4831 1.86155 0 
43.6766 2.30745 0 
42.3819 0.284307 0 
43.6946 3.81687 0 
41.223 2.31438 0 
43.3307 5.1662 0 
43.4671 6.37011 0 
42.322 5.83645 0 
42.2224 5.78452 0 
42.8499 9.22628 0 
43.8158 7.86521 0 
43.9234 10.8626 0 
41.8035 9.48706 0 
43.0588 11.2387 0 
43.0686 10.3578 0 
43.5207 13.7464 0 
42.5847 13.5292 0 
42.9095 16.2825 0 
41.5899 16.9596 0 
42.6544 18.656 0 
42.0481 19.1071 0 
42.0893 19.5105 0 
41.6541 23.8022 0 
43.7066 24.2124 0 
43.3527 23.5841 0 
42.5209 23.6849 0 
43.3661 26.2022 0 
42.2995 26.9725 0 
41.8695 24.9683 0 
43.2245 25.5775 0 
43.6185 28.178 0 
41.6 27.2904 0 
43.4261 27.1478 0 
41.5058 29.7878 0 
42.3089 31.4528 0 
43.7545 31.2382 0 
41.2607 32.3104 0 
42.9916 32.5002 0 
42.8751 34.1588 0 
43.1245 34.3039 0 
42.8949 36.9855 0 
43.5057 35.3036 0 
43.0739 35.7913 0 
42.1091 34.8414 0 
42.9633 37.6892 0 
41.4069 37.9978 0 
41.9303 39.7217 0 
43.2778 38.1168 0 
45.9958 1.40623 0 
44.2544 1.43616 0 
46.2134 1.42488 0 
44.4231 2.10295 0 
45.9887 0.312097 0 
45.0913 0.0184645 0 
45.4454 1.01711 0 
45.0185 1.77293 0 
44.0525 3.76797 0 
44.7878 3.76502 0 
45.6907 3.3241 0 
45.3513 2.69241 0 
43.9589 3.66778 0 
44.0974 3.68728 0 
44.7775 3.51478 0 
46.3513 4.91366 0 
45.0564 4.76434 0 
44.0337 6.4797 0 
45.6155 6.85563 0 
45.2249 4.29068 0 
44.2715 4.19209 0 
44.3878 4.89228 0 
44.5995 5.30861 0 
45.9561 5.33658 0 
43.9742 4.77967 0 
45.0875 6.10527 0 
44.8309 7.06595 0 
45.4802 4.64324 0 
45.1921 6.5664 0 
45.9849 6.97414 0 
43.5787 8.17678 0 
44.73 8.43101 0 
46.0493 7.79233 0 
44.5266 7.10804 0 
44.5445 7.54045 0 
45.446 7.14673 0 
43.9304 8.52409 0 
45.9466 9.45271 0 
45.5859 9.60833 0 
44.5709 10.1617 0 
43.7229 10.9265 0 
45.5097 9.41217 0 
46.1485 12.0958 0 
45.5716 13.7142 0 
46.2303 13.9663 0 
44.861 12.96 0 
44.8049 16.5738 0 
45.2235 15.2011 0 
45.4193 16.1221 0 
44.9256 15.3805 0 
45.0791 15.3098 0 
44.1106 14.5332 0 
45.0145 14.6458 0 
45.9156 15.0112 0 
46.1273 17.0518 0 
45.0662 17.7907 0 
44.3636 18.1755 0 
44.6653 17.6657 0 
44.3634 18.5292 0 
45.207 19.0361 0 
44.0939 19.6329 0 
45.0445 20.1989 0 
44.1991 22.6223 0 
45.4096 24.3459 0 
45.0951 22.5014 0 
45.9823 23.1245 0 
44.5075 22.6114 0 
43.9461 22.2926 0 
45.7679 22.5485 0 
45.4871 25.668 0 
44.7818 27.3584 0 
45.8993 26.2609 0 
44.6415 27.0634 0 
44.6061 25.8502 0 
44.9428 24.8231 0 
44.0438 29.353 0 
45.0633 28.3954 0 
43.8904 28.383 0 
44.8452 28.8381 0 
45.9279 28.6091 0 
43.8867 29.024 0 
45.1998 30.2266 0 
44.0292 30.7577 0 
45.4041 29.8106 0 
44.632 29.9401 0 
46.3067 31.3587 0 
45.0128 33.9179 0 
44.5819 33.1724 0 
44.8721 32.9133 0 
44.1532 33.9104 0 
44.8831 33.9899 0 
46.0787 33.2682 0 
46.1949 33.9872 0 
44.5689 33.7574 0 
43.673 34.2916 0 
46.2218 35.9052 0 
45.8844 34.3759 0 
44.2859 35.1111 0 
45.7789 36.2017 0 
45.9316 35.6852 0 
44.6412 36.8936 0 
45.2436 36.8262 0 
43.8621 36.686 0 
45.1353 38.0611 0 
45.2512 37.4813 0 
46.404 37.5558 0 
46.3573 38.3842 0 
47.3111 38.889 0 
48.2266 0.427091 0 
48.7146 0.228352 0 
48.7674 0.753788 0 
48.3679 1.55917 0 
48.0899 0.0483131 0 
47.5134 1.31888 0 
48.4665 37.9361 0 
48.4675 0.759224 0 
47.374 0.305714 0 
46.515 1.61725 0 
48.2911 2.89456 0 
48.1699 2.00868 0 
48.805 3.71165 0 
48.4897 2.56564 0 
47.6892 1.83785 0 
48.0195 2.11989 0 
47.755 4.13717 0 
46.2442 3.81431 0 
46.4047 4.33649 0 
48.0215 1.91751 0 
47.2758 3.41243 0 
48.3606 2.67219 0 
48.5037 6.46411 0 
48.3307 4.92202 0 
46.7328 6.15051 0 
47.7631 4.92058 0 
46.8413 4.71488 0 
48.2262 4.89069 0 
46.9497 6.10058 0 
48.0914 5.99738 0 
48.5375 3.96969 0 
47.9027 5.85915 0 
46.5447 6.89423 0 
47.2647 5.51235 0 
48.5146 9.67367 0 
46.7053 8.976 0 
48.5361 7.07161 0 
48.7324 8.38301 0 
47.4831 6.60521 0 
47.1115 7.50837 0 
47.7862 8.47404 0 
47.5267 9.71371 0 
46.8242 11.4808 0 
46.5872 10.972 0 
48.6705 10.944 0 
46.6113 10.2175 0 
48.1219 11.2266 0 
47.8132 10.505 0 
48.2147 12.6227 0 
46.6783 12.8072 0 
48.0685 13.1442 0 
48.0287 12.7837 0 
47.8377 13.4758 0 
48.1672 12.6522 0 
48.2978 14.4995 0 
48.4286 15.1298 0 
48.4746 14.294 0 
48.621 15.9632 0 
47.9618 16.8176 0 
47.7336 14.4581 0 
47.5772 17.2223 0 
46.7658 16.4164 0 
47.8243 16.6769 0 
47.0517 14.5692 0 
47.2174 18.6648 0 
47.4266 18.1183 0 
48.4789 18.9712 0 
46.5277 17.6379 0 
47.8692 18.8826 0 
47.4513 19.7029 0 
47.617 18.4137 0 
46.8652 18.3281 0 
47.2173 16.9293 0 
46.4085 17.271 0 
46.4367 21.4267 0 
48.1303 20.8011 0 
46.7585 19.9746 0 
48.2173 20.802 0 
47.9993 20.6389 0 
47.1913 21.5533 0 
46.6355 21.5415 0 
48.4617 19.5375 0 
48.4481 21.7305 0 
47.4146 19.5757 0 
47.0915 20.3492 0 
48.8053 20.6012 0 
46.8666 22.3729 0 
48.5919 24.1971 0 
46.9086 22.9372 0 
48.0276 23.339 0 
48.2661 24.0166 0 
46.2563 23.5616 0 
47.2518 21.2956 0 
48.1208 25.298 0 
46.8426 26.1003 0 
47.6162 24.6982 0 
48.462 28.1056 0 
48.1479 29.0957 0 
47.1876 27.3684 0 
46.5843 28.2593 0 
47.8533 27.2173 0 
46.1653 27.1422 0 
48.1205 29.2303 0 
48.195 27.4912 0 
46.2002 29.5385 0 
46.5078 29.7735 0 
47.055 30.7139 0 
47.655 30.008 0 
46.959 29.7343 0 
47.412 29.4464 0 
47.0921 29.4931 0 
46.5526 31.4459 0 
46.9724 31.5427 0 
47.2312 30.492 0 
48.5673 30.4658 0 
48.3258 31.7376 0 
47.3399 31.2805 0 
48.0758 33.6664 0 
47.2346 31.9652 0 
46.42 33.6852 0 
48.3317 31.61 0 
46.594 33.1085 0 
48.5666 32.668 0 
46.9496 32.5048 0 
46.5683 32.073 0 
48.1965 33.1426 0 
47.7206 32.1715 0 
48.5096 33.3577 0 
48.3942 33.9961 0 
48.2027 36.7217 0 
47.4991 34.8527 0 
48.4809 36.8771 0 
46.2073 35.8918 0 
47.8241 34.1704 0 
47.9868 34.9514 0 
46.78 35.1652 0 
48.0076 37.4854 0 
47.185 36.9343 0 
47.899 37.4683 0 
48.1787 38.163 0 
49.1547 39.8505 0 
49.6618 0.888015 0 
50.1971 0.493398 0 
50.3299 1.49185 0 
51.0046 0.224729 0 
48.6597 1.01474 0 
50.3705 1.67123 0 
48.9463 39.1725 0 
49.729 1.32455 0 
50.1595 38.3404 0 
49.5055 0.360663 0 
50.5113 3.1906 0 
50.0647 1.52326 0 
48.8986 1.737 0 
51.1847 2.47834 0 
50.2629 2.10647 0 
48.7687 2.94039 0 
50.4457 2.12773 0 
51.1094 3.27774 0 
50.5169 3.12451 0 
49.0795 2.25239 0 
50.1744 2.03252 0 
50.7538 3.87932 0 
50.5709 2.81127 0 
50.6566 1.97895 0 
49.8643 2.86654 0 
51.3971 2.42276 0 
49.5009 3.86856 0 
49.0354 6.52281 0 
51.1214 4.17906 0 
49.604 6.79214 0 
51.1017 5.86256 0 
50.797 5.82305 0 
49.3707 4.94115 0 
51.0288 7.33714 0 
50.8092 8.25919 0 
49.5887 8.54786 0 
51.1298 7.18772 0 
48.8601 9.60351 0 
49.1804 8.36718 0 
49.5565 9.01852 0 
50.1898 8.37702 0 
50.424 6.65506 0 
49.8486 9.61906 0 
49.205 9.36373 0 
49.9105 9.94163 0 
49.1597 9.64997 0 
51.0864 10.6602 0 
49.2269 9.40084 0 
48.8838 11.549 0 
50.0819 9.75834 0 
50.7597 11.1596 0 
49.0134 11.8646 0 
49.1783 10.6401 0 
50.6844 13.1836 0 
49.5661 13.7593 0 
51.0339 13.1415 0 
51.0735 12.5058 0 
50.5416 13.0566 0 
50.4577 14.2291 0 
49.0627 13.961 0 
49.553 13.2948 0 
50.639 11.3381 0 
49.4588 12.9438 0 
49.893 12.4728 0 
50.0815 13.7958 0 
49.7302 12.2287 0 
51.0312 13.4885 0 
50.3686 12.9051 0 
48.556 15.0245 0 
48.8857 14.409 0 
50.3972 14.9935 0 
50.1154 17.0729 0 
48.8618 16.0928 0 
48.9438 16.7002 0 
50.9666 15.5552 0 
49.6088 14.4671 0 
50.4403 16.2845 0 
50.524 15.7946 0 
50.2933 16.6086 0 
50.4947 16.7941 0 
49.6376 15.2209 0 
50.1512 16.8971 0 
49.5919 15.6288 0 
50.2033 16.7296 0 
49.5928 16.8292 0 
50.4583 14.8022 0 
50.9927 14.9631 0 
49.7549 16.3354 0 
50.6153 16.451 0 
51.1424 15.1312 0 
49.9452 15.6277 0 
48.926 16.0395 0 
51.1111 17.2087 0 
49.3415 17.3741 0 
48.9049 18.0292 0 
49.6581 18.4496 0 
49.3296 18.2981 0 
49.6632 17.5488 0 
48.7813 18.8435 0 
50.4156 18.4869 0 
50.1629 18.08 0 
50.0646 17.1255 0 
50.3116 17.1155 0 
50.715 19.1683 0 
49.7458 20.9023 0 
49.708 21.8025 0 
50.9746 19.6788 0 
50.5312 19.8168 0 
50.3318 20.8806 0 
50.4308 19.5971 0 
49.3379 19.5862 0 
50.7069 21.0544 0 
49.6106 21.5621 0 
49.9273 19.6781 0 
49.3587 21.7763 0 
51.3508 20.5937 0 
49.0919 21.4853 0 
50.8302 21.5242 0 
49.2783 20.5818 0 
50.3056 20.9525 0 
49.3735 21.5075 0 
51.1858 20.2263 0 
49.6169 19.4226 0 
49.7074 23.9856 0 
51.3186 23.0087 0 
50.6902 21.4481 0 
50.1924 24.0482 0 
51.0613 23.3011 0 
51.0227 22.6092 0 
50.0318 22.4181 0 
50.539 22.5501 0 
48.9426 23.4442 0 
49.0336 24.1396 0 
50.5248 23.3907 0 
50.1369 22.0109 0 
49.6788 24.7749 0 
49.2891 24.6878 0 
50.3085 26.209 0 
49.0717 26.5303 0 
50.4367 25.9231 0 
50.8331 26.1322 0 
49.605 25.7762 0 
50.1631 24.9863 0 
51.0019 28.634 0 
48.9539 29.4294 0 
50.2472 29.0879 0 
51.119 28.1972 0 
50.8404 27.0989 0 
49.4793 28.1642 0 
48.9631 29.1422 0 
51.0304 29.016 0 
50.157 29.1294 0 
49.2803 28.1229 0 
49.6313 29.1395 0 
50.692 27.5073 0 
51.0608 27.7349 0 
50.3985 27.6903 0 
49.0663 28.117 0 
51.5897 29.0197 0 
50.6665 28.218 0 
50.4046 29.4494 0 
50.9024 31.3858 0 
50.8136 30.5575 0 
49.9263 30.395 0 
49.2084 30.9373 0 
49.6712 31.3942 0 
51.1543 30.5402 0 
50.176 29.8177 0 
49.9959 32.1759 0 
49.9898 31.6834 0 
50.111 31.0679 0 
50.42 31.5997 0 
48.8454 29.8517 0 
50.2071 34.4992 0 
49.7717 33.841 0 
[...]
      <PointData Vectors="vector">
        <DataArray type="Float32" Name="Velocity" NumberOfComponents="3" format="ascii">

-247.14 -185.82 0 
-289.161 -95.444 0 
-231.477 -103.832 0 
-307.199 -136.999 0 
-235.647 -128.292 0 
-217.519 -134.617 0 
-274.553 -143.539 0 
-278.137 -181.025 0 
-305.296 -148.912 0 
-282.457 -116.023 0 
-264.358 -156.394 0 
-267.714 -107.029 0 
-235.851 162.591 0 
-213.193 -122.681 0 
-308.341 -106.809 0 
-234.295 -105.962 0 
-222.55 -80.1048 0 
-237.01 -94.5176 0 
-282.271 -108.937 0 
-251.934 -198.234 0 
-205.94 -66.7969 0 
-278.746 -58.8269 0 
-214.837 30.0961 0 
-292.232 -66.1623 0 
-247.709 -156.852 0 
-255.118 -168.29 0 
-282.165 -145.088 0 
-268.964 -197.419 0 
-280.246 -119.804 0 
-281.965 -151.409 0 
-261.825 -167.856 0 
-282.862 -54.7008 0 
-312.334 -140.586 0 
-245.97 -108.341 0 
-237.564 -137.534 0 
-243.009 -27.4236 0 
-233.219 -108.587 0 
-293.123 -124.983 0 
-248.975 -248.191 0 
-275.942 -122.59 0 
-227.73 -92.9402 0 
-272.075 -128.315 0 
-241.352 -80.6379 0 
-267.829 -23.2579 0 
-264.216 -121.834 0 
-288.029 -86.3851 0 
-243.785 -52.2764 0 
-202.667 -3.41652 0 
-249.304 -41.7839 0 
-270.501 -83.3065 0 
-258.885 -75.4709 0 
-247.336 -48.7268 0 
-258.602 -183.601 0 
-226.576 -197.198 0 
-303.207 -105.959 0 
-270.046 -53.0857 0 
-228.158 -198.791 0 
-271.43 -61.0382 0 
-246.137 -70.8662 0 
-267.878 -188.237 0 
-213.668 38.8845 0 
-266.438 -46.9203 0 
-300.806 -69.3809 0 
-276.111 -46.2548 0 
-224.2 56.6288 0 
-296.542 -172.2 0 
-278.427 -202.515 0 
-331.696 -187.265 0 
-234.171 -179.174 0 
-316.559 -206.076 0 
-256.81 -198.236 0 
-308.781 -43.8714 0 
-244.049 -196.787 0 
-244.901 -174.861 0 
-265.881 -147.985 0 
-284.355 -196.931 0 
-261.262 -37.598 0 
-295.812 -69.8284 0 
-242.531 -172.731 0 
-272.276 -27.4925 0 
-236.058 -148.41 0 
-312.034 -76.9103 0 
-215.144 -117.168 0 
-303.131 -193.618 0 
-274.103 -173.851 0 
-266.943 -30.6801 0 
-204.926 -113.118 0 
-183.793 -50.2317 0 
-260.833 -79.3838 0 
-193.5 72.4187 0 
-286.667 -48.0421 0 
-207.241 -103.244 0 
-200.922 -123.519 0 
-280.537 -138.6 0 
-286.927 -65.8136 0 
-259.009 -162.615 0 
-266.517 -21.4477 0 
-238.178 -102.915 0 
-279.806 -130.199 0 
-194.806 66.4157 0 
-244.525 -112.504 0 
-298.495 -176.86 0 
-316.392 -114.833 0 
-227.494 -97.2725 0 
-250.832 -53.1681 0 
-208.544 -107.827 0 
-266.416 -62.3922 0 
-252.207 -130.368 0 
-225.617 -80.6582 0 
-201.048 -69.8086 0 
-266.233 -219.354 0 
-242.943 43.8964 0 
-204.394 -101.575 0 
-243.843 -82.9258 0 
-206.164 103.074 0 
-230.567 -86.146 0 
-264.472 -92.6934 0 
-267.325 -197.318 0 
-277.578 -112.417 0 
-237.753 -108.619 0 
-290.301 -230.571 0 
-253.319 -113.968 0 
-253.445 -110.954 0 
-248.864 -76.7059 0 
-301.245 -200.095 0 
-278.011 -201.356 0 
-220.556 -173.545 0 
-256.327 -108.517 0 
-269.513 -62.9014 0 
-252.418 -206.027 0 
-258.867 -188.434 0 
-276.437 -69.8605 0 
-228.6 -66.0049 0 
-248.214 -168.762 0 
-306.262 -82.5262 0 
-263.917 -223.033 0 
-260.843 -226.838 0 
-310.378 -112.168 0 
-216.651 -59.1973 0 
-244.266 -179.357 0 
-217.203 -51.7961 0 
-240.507 -202.146 0 
-265.908 -197.927 0 
-280.519 -169.742 0 
-237.269 -179.662 0 
-238.676 -145.61 0 
-236.45 -128.7 0 
-252.66 -93.0037 0 
-241.413 -132.682 0 
-207.469 -192.564 0 
-281.762 -120.465 0 
-304.101 -173.022 0 
-279.61 -177.851 0 
-298.934 -62.7347 0 
-213.582 -209.506 0 
-294.137 -187.564 0 
-237.923 -69.2983 0 
-279.335 -89.7408 0 
-282.371 -84.6461 0 
-217.223 -144.512 0 
-275.721 -116.776 0 
-255.393 -69.5946 0 
-248.705 -169.937 0 
-252.333 -168.406 0 
-275.736 -201.933 0 
-275.965 -83.7371 0 
-310.579 -192.104 0 
-268.427 -145.907 0 
-279.107 -77.1099 0 
-239.371 4.984 0 
-269.909 -147.392 0 
-267.34 -168.414 0 
-278.568 -143.371 0 
-253.23 -178.578 0 
-274.039 -184.972 0 
-257.818 -137.147 0 
-256.058 -141.696 0 
-254.521 -109.295 0 
-275.353 -146.6 0 
-209.248 -32.5292 0 
-238.006 -150.748 0 
-259.737 -23.7518 0 
-225.569 -100.61 0 
-296.437 -172.792 0 
-258.366 -159.008 0 
-251.19 21.7933 0 
-265.447 18.9823 0 
-221.349 -106.597 0 
-241.837 -122.793 0 
-267.99 -127.181 0 
-246.805 -122.084 0 
-262.196 -151.093 0 
-270.156 -13.7587 0 
-273.885 -254.006 0 
-279.215 -155.57 0 
-227.336 -102.104 0 
-253.669 -8.01092 0 
-266.324 -255.008 0 
-299.663 -262.077 0 
-222.049 -7.1755 0 
-226.287 -133.16 0 
-241.014 -122.724 0 
-255.101 -111.784 0 
-303.003 -182.466 0 
-274.468 -97.1326 0 
-230.168 -101.777 0 
-240.015 2.27661 0 
-250.883 -142.443 0 
-306.326 -245.097 0 
-257.642 -75.2379 0 
-237.676 -88.6767 0 
-245.741 -135.784 0 
-240.514 -72.207 0 
-314.846 -131.357 0 
-213.872 -57.6298 0 
-275.841 -200.074 0 
-268.063 -209.324 0 
-308.934 -170.885 0 
-277.935 -140.936 0 
-276.751 -243.682 0 
-258.627 -108.759 0 
-275.469 -160.383 0 
-244.824 -86.8423 0 
-268.117 -82.9394 0 
-279.632 -190.745 0 
-217.05 -212.941 0 
-242.149 -67.8919 0 
-294.455 -228.506 0 
-285.958 -84.5293 0 
-266.523 -126.616 0 
-305.288 -70.3522 0 
-261.314 -46.3216 0 
-228.948 -135.738 0 
-247.296 3.6723 0 
-256.831 -102.921 0 
-227.405 -175.771 0 
-240.819 -64.4088 0 
-276.267 -189.027 0 
-242.463 -172.007 0 
-276.999 -175.621 0 
-305.479 -200.636 0 
-267.167 -208.349 0 
-275.601 -232.604 0 
-190.558 -196.299 0 
-219.49 -78.4804 0 
-199.214 -70.2105 0 
-232.9 -142.609 0 
-235.779 -213.665 0 
-258.81 -202.644 0 
-253.525 -41.8388 0 
-268.677 -80.3401 0 
-234.181 -77.7854 0 
-247.732 -193.259 0 
-266.728 -198.234 0 
-297.124 -155.248 0 
-247.223 -214.442 0 
-289.468 -227.199 0 
-250.622 -70.3951 0 
-275.563 -223.901 0 
-256.84 -181.286 0 
-204.691 -73.6936 0 
-221.994 -26.2528 0 
-253.792 -194.282 0 
-204.466 -82.9629 0 
-238.388 -180.136 0 
-320.252 -126.727 0 
-281.687 -186.503 0 
-296.04 -75.9851 0 
-288.628 -234.306 0 
-276.795 -232.731 0 
-267.93 -207.508 0 
-252.987 -78.8461 0 
-250.844 -233.414 0 
-258.789 -208.614 0 
-269.378 -226.783 0 
-249.713 -164.404 0 
-240.033 -65.6818 0 
-229.565 -41.7084 0 
-222.206 -184.589 0 
-275.867 -156.553 0 
-285.552 -20.648 0 
-272.932 -91.3905 0 
-285.298 -187.208 0 
-278.673 -222.013 0 
-239.676 11.779 0 
-193.792 18.8062 0 
-277.152 -36.4627 0 
-244.326 -88.4668 0 
-273.029 -185.276 0 
-232.308 -156.978 0 
-289.604 -185.102 0 
-275.497 -172.861 0 
-236.118 -179.307 0 
-211.117 -61.5744 0 
-268.481 -44.5771 0 
-262.008 -195.04 0 
-234.279 -143.129 0 
-270.195 -142.265 0 
-259.883 -194.062 0 
-186.879 -52.7464 0 
-263.974 -301.109 0 
-274.941 -166.559 0 
-257.772 -33.725 0 
-267.198 -182.506 0 
-270.585 -186.172 0 
-234.67 -82.8713 0 
-274.634 -71.0078 0 
-234.594 -12.1068 0 
-280.459 -37.9795 0 
-276.671 -159.263 0 
-270.558 -32.2454 0 
-256.153 -188.582 0 
-243.93 -138.931 0 
-286.237 -129.4 0 
-212.654 -139.652 0 
-299.755 -154.492 0 
-270.095 -191.325 0 
-298.581 -178.361 0 
-253.505 -156.405 0 
-290.137 -160.363 0 
-280.22 -170.783 0 
-222.136 -145.773 0 
-270.464 -157.16 0 
-228.184 -35.5102 0 
-255.916 93.283 0 
-181.812 -110.33 0 
-307.863 -205.11 0 
-236.263 -179.768 0 
-241.491 -68.4491 0 
-288.725 -239.031 0 
-232.989 -172.386 0 
-263.363 -58.2573 0 
-267.356 -76.9812 0 
-256.277 -55.8044 0 
-307.411 -136.325 0 
-215.841 -143.22 0 
-214.82 -142.667 0 
-257.798 -4.93029 0 
-225.39 -176.16 0 
-226.391 -96.8128 0 
-293.126 -119.019 0 
-207.635 -0.0146998 0 
-241.155 -109.313 0 
-238.995 -143.489 0 
-228.975 -151.001 0 
-308.116 -125.619 0 
-308.005 -160.005 0 
-276.297 -124.906 0 
-202.447 25.7976 0 
-280.851 -127.08 0 
-270.984 -226.681 0 
-275.005 -151.707 0 
-267.686 -142.173 0 
-249.236 -112.249 0 
-248.868 -135.075 0 
-233.854 -153.654 0 
-287.963 -138.401 0 
-334.243 -163.209 0 
-238.908 -232.502 0 
-316.861 -230.929 0 
-271.035 -125.206 0 
-244.121 -29.5271 0 
-257.516 -21.5727 0 
-232.324 46.9549 0 
-212.593 85.3207 0 
-209.149 -48.7881 0 
-225.035 -138.461 0 
-265.859 -123.983 0 
-291.399 -145.838 0 
-271.424 -102.514 0 
-231.47 -232.872 0 
-217.217 -66.9046 0 
-221.295 -137.081 0 
-224.824 27.9142 0 
-237.504 -117.882 0 
-257.239 -103.25 0 
-241.61 78.0518 0 
-244.272 -221.909 0 
-237.06 -92.9164 0 
-259.606 -135.668 0 
-237.374 -119.072 0 
-225.315 -95.1295 0 
-299.619 -68.7862 0 
-314.378 -141.337 0 
-298.848 -124.584 0 
-216.169 -91.1083 0 
-216.054 -54.7165 0 
-233.631 -89.329 0 
-238.087 9.3926 0 
-227.266 -102.237 0 
-279.685 -129.961 0 
-236.166 -207.119 0 
-242.124 -156.659 0 
-249.651 -196.403 0 
-219.599 -184.449 0 
-256.227 -100.441 0 
-258.014 -192.46 0 
-258.03 -117.261 0 
-145.66 81.4638 0 
-267.689 -71.9837 0 
-229.298 -114.818 0 
-287.235 -181.883 0 
-251.687 -108.701 0 
-258.522 -151.317 0 
-273.818 -228.173 0 
-251.53 -203.816 0 
-245.6 -203.925 0 
-213.044 -195.585 0 
-309.002 -215.675 0 
-231.798 -132.664 0 
-218.88 -228.495 0 
-237.416 -14.7012 0 
-280.799 -214.025 0 
-247.739 -222.507 0 
-246.8 -67.4491 0 
-268.097 -230.264 0 
-285.492 -233.42 0 
-283.376 -191.89 0 
-273.346 -157.187 0 
-227.46 -38.9609 0 
-236.503 -223.393 0 
-188.333 -73.4547 0 
-275.643 -151.096 0 
-258.484 -2.68412 0 
-271.707 -190.145 0 
-271.121 -179.179 0 
-282.19 -143.893 0 
-249.064 -94.2058 0 
-306.502 -144.509 0 
-224.166 -177.998 0 
-245.627 47.6933 0 
-254.115 -192.172 0 
-252.416 -210.891 0 
-236.63 -216.26 0 
-223.678 -157.502 0 
-280.038 -209.996 0 
-242.136 -220.616 0 
-252.571 -73.5022 0 
-243.609 -101.935 0 
-286.466 -217.335 0 
-281.737 -196.303 0 
-273.711 -135.677 0 
-271.035 -176.925 0 
-247.666 -88.1443 0 
-243.289 -226.902 0 
-294.853 -91.312 0 
-274.821 -60.6868 0 
-218.565 -152.521 0 
-254.747 -175.219 0 
-260.828 -208.66 0 
-198.923 -190.73 0 
-263.886 -191.261 0 
-285.03 -202.883 0 
-265.423 -200.529 0 
-231.454 -200.737 0 
-266.993 -194.81 0 
-278.945 -211.408 0 
-223.325 -180.694 0 
-245.32 -221.208 0 
-253.501 -211.201 0 
-196.208 -93.3316 0 
-250.917 -164.381 0 
-265.11 -234.252 0 
-243.501 -130.029 0 
-211.651 -199.833 0 
-275.018 -64.685 0 
-276.764 -199.678 0 
-284.388 -180.522 0 
-287.87 -166.984 0 
-247.494 -104.28 0 
-261.899 -148.469 0 
-226.211 -142.607 0 
-267.125 -67.4494 0 
-280.095 -195.443 0 
-232.777 -193.464 0 
-238.707 -174.181 0 
-255.195 -136.102 0 
-268.773 -180.392 0 
-272.253 -162.469 0 
-279.359 -179.709 0 
-230.808 -50.5441 0 
-285.951 -158.096 0 
-300.561 -252.911 0 
-224.889 38.5121 0 
-209.536 -66.5828 0 
-174.664 61.8936 0 
-241.216 -156.324 0 
-208.504 66.934 0 
-280.502 -136.662 0 
-248.222 -19.8745 0 
-220.856 -258.149 0 
-320.511 -191.913 0 
-288.027 -291.91 0 
-191.601 7.11382 0 
-269.125 -182.414 0 
-251.196 -128.71 0 
-278.399 -156.151 0 
-267.361 -141.254 0 
-288.07 -39.9464 0 
-194.448 47.5915 0 
-210.745 -139.795 0 
-215.219 -141.643 0 
-257.949 -172.858 0 
-268.045 -156.826 0 
-232.675 -31.3242 0 
-273.715 -188.17 0 
-257.222 -177.684 0 
-200.223 -139.025 0 
-227.253 -41.0107 0 
-280.232 -244.399 0 
-239.127 -163.374 0 
-262.199 -92.6209 0 
-260.939 -157.209 0 
-242.957 -25.421 0 
-263.976 -81.7101 0 
-306.577 -29.1542 0 
-264.708 -126.213 0 
-284.718 -45.9365 0 
-197.789 -139.404 0 
-242.514 -170.204 0 
-285.051 6.7587 0 
-269.396 -117.306 0 
-206.418 68.2798 0 
-261.293 -275.842 0 
-261.521 -11.5564 0 
-245.673 -180.902 0 
-271.768 -168.883 0 
-242.347 -163.278 0 
-280.61 -178.795 0 
-257.663 -139.767 0 
-259.938 -171.755 0 
-203.441 10.2004 0 
-283.474 -215.515 0 
-261.281 -179.018 0 
-237.003 -93.5599 0 
-289.819 -50.0568 0 
-223.838 -7.5476 0 
-305.908 -144.757 0 
-213.152 39.3135 0 
-249.121 -15.8616 0 
-275.731 -165.119 0 
-265.634 -22.5395 0 
-246.549 -124.47 0 
-264.839 -152.24 0 
-271.866 -127.106 0 
-248.732 -243.414 0 
-272.852 -166.45 0 
-219.825 -127.612 0 
-228.199 -22.3261 0 
-210.218 -18.5328 0 
-235.046 -43.2325 0 
-236.276 -133.232 0 
-224.375 -144.105 0 
-200.175 -2.93844 0 
-255.779 -152.542 0 
-252.952 1.60709 0 
-243.612 -140.5 0 
-289.485 18.8801 0 
-277.623 -150.112 0 
-219.637 -142.316 0 
-278.563 -256.079 0 
-221.045 -212.386 0 
-275.184 -243.063 0 
-204.497 -120.349 0 
-195.614 -111.41 0 
-247.135 -218.343 0 
-265.254 -110.22 0 
-280.318 -235.174 0 
-266.954 -148.479 0 
-286.258 -157.135 0 
-264.65 -105.354 0 
-274.057 -126.89 0 
-258.919 -172.527 0 
-228.137 -219.121 0 
-289.777 -155.799 0 
-282.98 -138.454 0 
-281.398 -182.589 0 
-269.323 -141.404 0 
-255.598 -114.396 0 
-228.676 -110.376 0 
-270.685 -129.591 0 
-244.893 -222.751 0 
-262.618 -162.339 0 
-258.914 -222.56 0 
-273.798 -205.891 0 
-268.756 -275.201 0 
-277.648 -208.685 0 
-254.766 -91.5034 0 
-200.87 -228.498 0 
-224.891 -116.363 0 
-249.127 -153.102 0 
-255.86 -23.7865 0 
-247.684 -212.324 0 
-222.208 -234.708 0 
-249.545 -48.6196 0 
-245.585 -144.782 0 
-209.395 -41.1545 0 
-215.372 -243.324 0 
-204.012 -87.2079 0 
-251.681 -201.454 0 
-218.606 -95.0207 0 
-145.2 95.6818 0 
-272.83 -102.056 0 
-197.619 -216.318 0 
-266.181 -101.793 0 
-212.523 -124.638 0 
-237.431 -218.19 0 
-278.314 -93.9169 0 
-196.667 -188.413 0 
-263.097 -252.128 0 
-224.609 -111.379 0 
-241.287 -35.6458 0 
-252.982 -193.753 0 
-274.952 -90.4076 0 
-214.834 -94.1288 0 
-177.408 -139.232 0 
-234.132 -56.7991 0 
-248.868 -207.805 0 
-207.241 -102.285 0 
-260.135 -206.002 0 
-287.771 -94.2772 0 
-254.153 -82.0152 0 
-259.734 -199.533 0 
-276.889 -66.9396 0 
-255.248 -216.815 0 
-265.537 -246.879 0 
-280.348 -183.698 0 
-300.193 -83.9748 0 
-263.922 -57.0535 0 
-284.719 -66.8095 0 
-264.097 -246.38 0 
-286.257 -199.777 0 
-271.885 -99.3714 0 
-276.87 -149.072 0 
-228.14 91.7812 0 
-240.099 -106.089 0 
-228.624 -125.577 0 
-270.15 -109.377 0 
-226.759 -87.3586 0 
-265.012 -188.066 0 
-267.133 -187.037 0 
-269.422 -185.814 0 
-300.358 -201.705 0 
-286.332 -101.311 0 
-224.891 -231.489 0 
-244.264 -232.306 0 
-211.412 -37.6391 0 
-232.258 -88.3808 0 
-276.461 -240.151 0 
-296.255 -201.506 0 
-202.144 -56.0361 0 
-230.043 -95.599 0 
-213.31 -92.7566 0 
-259.907 -224.165 0 
-256.575 -160.691 0 
-234.983 -210.814 0 
-308.052 -174.905 0 
-241.479 -24.3718 0 
-198.713 -187.88 0 
-254.69 -176.035 0 
-279.685 -201.024 0 
-267.632 -179.515 0 
-185.136 -192.13 0 
-276.51 -174.379 0 
-218.672 -73.0584 0 
-207.789 -95.964 0 
-293.054 -100.622 0 
-237.338 -209.281 0 
-281.722 -167.977 0 
-250.399 -187.925 0 
-254.182 -91.7987 0 
-296.491 -113.613 0 
-247.61 -81.8132 0 
-260.532 -187.011 0 
-279.393 -66.3415 0 
-272.192 -94.3142 0 
-249.061 -179.978 0 
-243.837 -138.746 0 
-264.422 -199.192 0 
-257.49 -162.981 0 
-224.996 -219.817 0 
-262.291 -174.9 0 
-218.778 -189.741 0 
-255.677 -81.7133 0 
-269.393 -88.2929 0 
-259.069 -93.4853 0 
-213.598 -37.6946 0 
-257.148 -74.0795 0 
-258.34 -230.773 0 
-234.684 -187.234 0 
-204.364 -77.2501 0 
-255.314 -233.499 0 
-221.702 -216.474 0 
-226.644 -193.872 0 
-292.583 -225.791 0 
-242.628 -52.6755 0 
-217.547 -153.458 0 
-257.625 -176.62 0 
-294.908 -172.188 0 
-282.614 -158.252 0 
-292.422 -163.34 0 
-272.944 -186.394 0 
-274.233 -183.936 0 
-223.29 -118.673 0 
-266.965 -199.002 0 
-260.065 -179.53 0 
-264.572 -65.2204 0 
-254.114 -112.438 0 
-196.548 -175.009 0 
-248.518 -203.843 0 
-233.947 -168.926 0 
-266.489 -205.028 0 
-242.31 -168.941 0 
-262.091 -206.434 0 
-256.945 -101.271 0 
-267.456 -148.691 0 
-266.285 -183.492 0 
-232.733 -264.177 0 
-241.508 -159.387 0 
-263.325 -183.595 0 
-228.458 -147.33 0 
-237.231 -152.424 0 
-310.723 -180.671 0 
-240.636 -134.406 0 
-282.155 -180.49 0 
-250.869 -219.677 0 
-279.413 -198.055 0 
-234.328 -177.115 0 
-252.127 -64.7917 0 
-266.953 -162.532 0 
-226.264 -159.588 0 
-228.873 -173.681 0 
-253.506 -185.334 0 
-228.522 -158.729 0 
-291.398 -158.489 0 
-270.157 -51.8976 0 
-240.217 -173.347 0 
-274.27 -161.12 0 
-267.715 -36.4203 0 
-279.817 -144.528 0 
-278.432 -144.639 0 
-230.091 -201.339 0 
-210.924 -179.028 0 
-242.252 -169.553 0 
-254.236 -167.955 0 
-228.449 -160.04 0 
-251.591 -141.816 0 
-251.603 -35.4916 0 
-286.728 -147.27 0 
-266.953 -141.958 0 
-280.804 -177.943 0 
-277.195 -150.218 0 
-250.344 -170.217 0 
-222.247 -225.612 0 
-220.104 -47.5051 0 
-301.306 -208.597 0 
-239.476 -149.455 0 
-290.765 -148.673 0 
-268.134 -148.637 0 
-220.227 -159.896 0 
-237.645 -66.0834 0 
-193.148 -140.606 0 
-272.222 -165.872 0 
-231.801 -263.924 0 
-272.421 -142.495 0 
-262.031 -130.352 0 
-279.989 -140.61 0 
-225.402 -175.246 0 
-245.683 -163.114 0 
-207.166 -65.6949 0 
-261.775 -179.416 0 
-308.615 -150.207 0 
-323.413 -169.423 0 
-208.742 -196.098 0 
-139.395 61.6666 0 
-275.712 -49.9192 0 
-214.434 -31.7366 0 
-197.805 -140.819 0 
-288.84 -206.489 0 
-246.17 -157.706 0 
-211.987 -192.75 0 
-237.367 -273.296 0 
-234.614 -170.592 0 
-216.764 -173.66 0 
-291.505 -182.805 0 
-242.553 -164.185 0 
-211.071 7.1849 0 
-228.066 -258.298 0 
-268.058 -171.707 0 
-229.391 -157.542 0 
-247.246 -167.965 0 
-239.664 -156.914 0 
-272.057 -138.903 0 
-274.965 -138.293 0 
-276.173 -162.317 0 
-237.111 -160.897 0 
-309.937 -181.148 0 
-249.003 -44.875 0 
-257.785 -124.28 0 
-234.586 -125.636 0 
-245.752 -191.008 0 
-258.764 -173.696 0 
-252.396 -194.637 0 
-241.244 -135.214 0 
-210.965 -249.865 0 
-225.668 -158.861 0 
-253.844 -174.25 0 
-217.66 -41.579 0 
-222.866 -234.757 0 
-277.511 -183.112 0 
-296.115 -180.831 0 
-266.813 -126.53 0 
-243.82 -186.487 0 
-221.24 -145.25 0 
-264.425 -265.918 0 
-272.587 -154.502 0 
-210.394 -250.751 0 
-182.059 -48.6566 0 
-251.55 -177.526 0 
-181.806 -147.43 0 
-261.533 -232.18 0 
-262.108 -209.322 0 
-224.456 -24.2435 0 
-291.68 -236.614 0 
-284.444 -145.538 0 
-229.189 -135.271 0 
-197.521 -184.051 0 
-241.683 -140.859 0 
-276.956 -146.5 0 
-228.758 -114.567 0 
-241.365 -240.215 0 
-255.141 -272.649 0 
-271.916 -123.467 0 
-292.394 -153.875 0 
-252.773 -134.257 0 
-243.67 -96.0473 0 
-226.599 -165.089 0 
-234.429 -125.713 0 
-194.747 -81.0512 0 
-230.39 -222.747 0 
-191.86 83.8512 0 
-209.932 -136.553 0 
-281.938 -238.721 0 
-267.227 -136.358 0 
-252.728 -43.5403 0 
-273.923 -253.144 0 
-228.904 -150.621 0 
-282.184 -241.854 0 
-232.961 -195.556 0 
-226.872 -139.671 0 
-206.937 -16.4226 0 
-242.905 -108.671 0 
-253.023 -106.229 0 
-247.584 -130.199 0 
-223.541 -99.1299 0 
-281.28 -228.016 0 
-290.465 -233.9 0 
-260.553 -127.782 0 
-259.747 -224.724 0 
-258.932 -94.1494 0 
-293.89 -137.423 0 
-226.864 -56.125 0 
-220.667 -116.324 0 
-255.367 -207.424 0 
-203.741 11.713 0 
-285.231 -244.444 0 
-240.884 -95.5757 0 
-267.819 -107.552 0 
-213.196 -82.2929 0 
-240.844 -102.716 0 
-203.035 -24.6572 0 
-286.221 -121.383 0 
-221.497 -251.478 0 
-228.997 -127.89 0 
-202.196 -118.198 0 
-266.602 -211.263 0 
-294.754 -221.681 0 
-240.549 -139.813 0 
-210.596 -223.415 0 
-255.126 -105.533 0 
-271.555 -11.7579 0 
-289.342 -147.306 0 
-243.579 -32.0132 0 
-223.012 -100.899 0 
-227.435 -61.7487 0 
-260.83 -233.885 0 
-219.273 -104.892 0 
-215.32 -162.027 0 
-233.495 -120.169 0 
-291.351 -231.215 0 
-267.376 -201.575 0 
-276.006 -220.441 0 
-220.08 -239.182 0 
-283.239 -203.696 0 
-291.902 -204.057 0 
-236.692 -108.243 0 
-246.194 -207.205 0 
-245.344 -69.6841 0 
-198.648 -117.768 0 
-206.429 -74.4803 0 
-224.547 -61.3861 0 
-224.077 -226.521 0 
-267.514 -196.079 0 
-208.442 -91.5364 0 
-177.235 95.2263 0 
-267.434 -104.374 0 
-205.309 115.481 0 
-267.155 -226.468 0 
-252.633 -222.196 0 
-212.719 -112.067 0 
-231.857 -178.636 0 
-245.018 -175.549 0 
-286.618 -111.895 0 
-264.536 -99.0851 0 
-243.711 -72.4862 0 
-225.693 -90.5407 0 
-238.189 -160.257 0 
-243.723 -192.845 0 
-277.285 -144.664 0 
-245.719 -204.825 0 
-262.374 -174.312 0 
-244.876 -153.267 0 
-189.267 -183.693 0 
-189.498 -102.087 0 
-245.929 -196.476 0 
-239.76 -220.666 0 
-259.512 -234.902 0 
-233.104 -193.095 0 
-239.478 -172.841 0 
-224.17 -155.746 0 
-254.279 -95.7397 0 
-261.117 42.7325 0 
-203.903 -69.3779 0 
-270.605 -180.34 0 
-234.188 -199.199 0 
-215.401 39.3404 0 
-249.208 -167.603 0 
-228.551 -137.686 0 
-251.896 -46.4865 0 
-269.075 -122.021 0 
-286.609 -46.5964 0 
-208.103 -194.926 0 
-209.819 -210.122 0 
-266.067 -235.685 0 
-280.416 -189.797 0 
-199.744 -235.009 0 
-223.88 -217.558 0 
-182.257 -81.8388 0 
-297.304 -103.925 0 
-262.644 -162.8 0 
-246.598 -164.917 0 
-190.923 -162.605 0 
-270.914 -210.716 0 
-235.254 -169.371 0 
-269.409 -183.298 0 
-255.245 -172.538 0 
-284.204 -112.695 0 