<VTKFile type="UnstructuredGrid" version="0.1" byte_order="BigEndian">
  <UnstructuredGrid>
        <Piece NumberOfPoints="8000" NumberOfCells="0" Time= "0.1">      <Points>
        <DataArray name="Position" type="Float32"  NumberOfComponents= "3"  format="ascii">

111.562 10.4157 0 
111.925 10.3792 0 
111.708 10.5593 0 
111.313 11.027 0 
111.379 10.7906 0 
111.153 11.9332 0 
111.776 10.5503 0 
111.382 10.7942 0 
111.388 10.804 0 
112.09 10.3665 0 
112.093 10.4771 0 
111.661 10.6777 0 
111.656 10.6176 0 
111.434 11.8661 0 
111.885 10.7802 0 
111.764 10.9561 0 
111.781 10.9527 0 
111.806 10.896 0 
111.599 10.4343 0 
111.509 10.6752 0 
111.777 10.7976 0 
111.951 10.3954 0 
111.294 10.9652 0 
111.194 11.9397 0 
111.58 10.7457 0 
110.357 12.117 0 
111.959 10.0136 0 
110.766 11.4503 0 
111.785 14.3288 0 
111.441 13.8675 0 
111.562 14.288 0 
111.582 13.5957 0 
112.164 14.2907 0 
111.429 13.8685 0 
111.928 14.363 0 
111.719 12.9025 0 
111.446 13.6266 0 
111.59 13.0359 0 
111.629 15.249 0 
112.055 16.4949 0 
110.627 15.927 0 
112.018 14.8877 0 
112.017 16.0984 0 
111.442 16.7167 0 
110.709 17.2828 0 
111.521 15.1237 0 
111.938 15.3314 0 
112.203 16.4034 0 
112.277 16.5231 0 
111.647 15.3561 0 
111.817 16.3957 0 
112.09 16.5551 0 
112.001 15.7043 0 
111.845 16.1956 0 
111.862 15.5435 0 
111.747 16.418 0 
111.337 15.0647 0 
111.238 16.3526 0 
112.175 16.8192 0 
112.203 16.2214 0 
110.873 16.0344 0 
111.517 15.2271 0 
111.392 15.2431 0 
111.756 15.5216 0 
111.579 14.9021 0 
111.441 15.3554 0 
112.057 16.3071 0 
111.579 15.0373 0 
110.033 17.345 0 
111.806 15.5987 0 
111.05 16.318 0 
111.433 15.238 0 
111.509 14.9665 0 
111.926 16.3462 0 
112.158 16.3478 0 
110.062 17.6228 0 
111.909 16.3377 0 
112.084 15.6266 0 
111.577 15.049 0 
112.118 16.3574 0 
112.139 16.3928 0 
111.876 15.7194 0 
111.503 16.5928 0 
111.953 16.5727 0 
111.79 16.3235 0 
110.078 17.4145 0 
111.995 14.8897 0 
111.366 14.9375 0 
110.907 16.184 0 
112.014 16.5536 0 
111.368 15.1872 0 
112.015 16.112 0 
111.393 15.6742 0 
111.158 16.042 0 
110.207 16.9833 0 
110.091 15.2853 0 
111.322 16.9578 0 
110.725 19.6212 0 
110.322 19.2136 0 
110.068 20.0561 0 
110.869 19.3203 0 
111.697 18.92 0 
110.303 19.1823 0 
110.454 20.1522 0 
110.459 20.1642 0 
110.894 18.4815 0 
109.593 17.8409 0 
110.253 19.6283 0 
110.865 19.4672 0 
111.779 18.9394 0 
112.117 18.647 0 
111.723 20.2442 0 
110.181 20.8984 0 
109.698 20.4437 0 
110.373 21.1988 0 
112.226 21.2694 0 
110.155 20.9467 0 
112.232 21.1841 0 
110.59 20.8482 0 
109.673 20.3185 0 
110.197 21.2551 0 
112.223 21.4776 0 
109.597 20.1537 0 
110.955 21.513 0 
112.245 21.1863 0 
110.641 20.9017 0 
111.992 22.5757 0 
110.188 21.5164 0 
109.695 20.4097 0 
110.466 21.3041 0 
110.472 21.5281 0 
110.558 21.4865 0 
110.341 21.4822 0 
110.686 20.8518 0 
110.027 20.4119 0 
110.974 20.6584 0 
110.036 20.4534 0 
110.257 21.4352 0 
110.958 21.4285 0 
110.264 21.1822 0 
112.016 21.3963 0 
112.027 22.5975 0 
111.869 20.439 0 
111.389 20.5503 0 
111.861 22.9647 0 
110.003 23.9891 0 
111.53 22.8881 0 
111.928 24.4197 0 
111.149 23.3326 0 
111.566 22.9096 0 
112.688 10.6417 0 
114.045 12.2255 0 
114.02 11.4218 0 
113.942 12.1456 0 
114.589 12.1168 0 
112.656 10.8478 0 
114.009 11.1014 0 
114.172 10.6808 0 
113.913 10.5676 0 
112.81 10.9687 0 
112.657 11.1228 0 
114.277 10.3708 0 
112.929 10.5992 0 
114.081 10.6175 0 
113.615 10.5089 0 
114.546 12.2229 0 
113.981 11.1663 0 
113.898 10.5939 0 
113.655 11.3099 0 
113.254 10.6283 0 
112.842 12.2809 0 
114.482 12.263 0 
113.015 10.6871 0 
112.51 10.7586 0 
113.884 12.0123 0 
113.482 12.2161 0 
112.599 10.7773 0 
113.514 10.5597 0 
112.74 10.4957 0 
112.692 11.0138 0 
114.362 12.2244 0 
113.27 10.5524 0 
113.176 10.4834 0 
112.874 10.9178 0 
113.984 12.2014 0 
113.599 10.0433 0 
113.236 11.1523 0 
113.724 12.1573 0 
112.282 11.9639 0 
112.62 13.0768 0 
114.566 12.4096 0 
114.141 12.2682 0 
113.343 14.49 0 
112.571 13.0617 0 
112.274 14.2219 0 
112.675 13.1009 0 
113.855 13.1999 0 
113.483 14.2364 0 
113.453 13.627 0 
113.332 14.4884 0 
114.033 13.4012 0 
114.454 12.4788 0 
112.776 13.6752 0 
113.945 13.4714 0 
112.663 14.5731 0 
114.222 13.4926 0 
114.372 14.4502 0 
112.655 12.6073 0 
113.619 12.7714 0 
114.037 13.2288 0 
113.734 13.9901 0 
113.341 12.8933 0 
112.934 14.149 0 
114.456 12.6715 0 
112.388 13.9134 0 
113.089 14.026 0 
113.599 12.7564 0 
114.239 13.3294 0 
113.586 13.1917 0 
114.214 12.7407 0 
112.658 14.3167 0 
113.968 13.9022 0 
112.801 13.8906 0 
113.85 13.1021 0 
113.178 14.5411 0 
112.854 13.8964 0 
113.463 14.2329 0 
114.364 12.5072 0 
113.444 12.2719 0 
112.628 14.5367 0 
113.343 12.6132 0 
112.668 13.0257 0 
113.256 13.8247 0 
112.809 13.5489 0 
113.609 13.732 0 
112.56 13.2004 0 
112.6 13.1141 0 
112.798 13.4162 0 
114.416 13.6502 0 
113.264 13.7676 0 
114.374 12.5962 0 
112.863 13.4084 0 
113.85 12.4179 0 
113.22 13.8637 0 
114.413 12.3484 0 
114.169 12.2958 0 
114.585 13.2636 0 
113.659 13.9374 0 
113.154 13.998 0 
114.391 13.4388 0 
113.863 12.4617 0 
114.465 13.128 0 
113.03 14.4477 0 
113.23 14.5162 0 
113.953 13.2797 0 
112.797 12.7187 0 
113.388 12.3521 0 
112.772 12.9757 0 
112.62 12.7549 0 
113.754 13.679 0 
114.136 12.2621 0 
114.454 12.2482 0 
113.194 12.2792 0 
114.493 13.0537 0 
114.427 12.8066 0 
112.783 13.4232 0 
114.292 12.4299 0 
112.732 14.3493 0 
113.046 14.4321 0 
113.22 14.5877 0 
112.7 13.3342 0 
113.407 14.305 0 
113.338 14.4531 0 
112.709 14.4276 0 
113.843 13.0561 0 
113.447 14.2003 0 
113.297 12.8187 0 
113.25 13.8554 0 
114.412 12.6677 0 
112.666 13.0907 0 
112.937 14.3017 0 
113.208 13.9158 0 
114.658 12.24 0 
114.192 12.7391 0 
112.703 14.0153 0 
114.075 12.879 0 
113.452 12.7236 0 
114.1 12.4711 0 
112.787 12.5422 0 
112.457 13.7429 0 
113.489 13.2512 0 
113.61 13.1774 0 
114.75 12.788 0 
114.231 13.6323 0 
113.826 14.0055 0 
112.842 12.7089 0 
113.975 13.0521 0 
112.583 13.1061 0 
113.484 14.2374 0 
113.84 13.9711 0 
114.192 12.8721 0 
113.426 12.3493 0 
112.529 12.8813 0 
113.609 13.1612 0 
113.096 14.0749 0 
114.205 12.3605 0 
114.638 14.5213 0 
114.465 12.9589 0 
112.896 13.9297 0 
113.928 13.2855 0 
112.825 14.5839 0 
114.455 12.6793 0 
114.288 12.6813 0 
112.825 13.9828 0 
113.764 14.0118 0 
112.296 14.7223 0 
113.635 13.1542 0 
112.186 13.6048 0 
114.583 12.423 0 
113.157 13.504 0 
114.486 13.3439 0 
113.696 14.0176 0 
114.311 12.6602 0 
112.636 13.1793 0 
113.165 13.0803 0 
113.645 12.54 0 
114.363 13.1149 0 
113.768 12.6941 0 
113.124 13.6705 0 
112.824 13.648 0 
112.655 14.6136 0 
113.927 13.9432 0 
113.528 12.6455 0 
114.388 13.2785 0 
113.486 13.4379 0 
113.935 13.5512 0 
114.711 13.4871 0 
112.878 14.097 0 
114.109 12.27 0 
114.417 14.5596 0 
112.656 13.9188 0 
114.211 17.2381 0 
112.627 16.6868 0 
113.832 16.9549 0 
112.886 15.8063 0 
112.852 16.4446 0 
114.283 16.8971 0 
113.867 16.1902 0 
113.035 16.9146 0 
113.416 15.6495 0 
112.569 16.8355 0 
114.168 16.4662 0 
114.107 15.8823 0 
114.031 16.4417 0 
112.316 15.4806 0 
112.966 15.9927 0 
113.355 15.8792 0 
113.439 16.749 0 
112.428 15.7578 0 
114.56 17.367 0 
112.893 15.9803 0 
113.574 16.9691 0 
113.556 16.2905 0 
114.494 15.3613 0 
112.775 17.2354 0 
114.631 16.8342 0 
112.462 17.0796 0 
113.858 15.6998 0 
113.386 16.6732 0 
112.548 15.96 0 
114.314 15.7332 0 
113.025 16.3389 0 
113.052 16.7972 0 
114.602 17.0215 0 
113.923 16.508 0 
113.522 15.698 0 
113.898 17.087 0 
113.973 17.4776 0 
112.559 16.4558 0 
113.594 15.6328 0 
113.964 16.7024 0 
114.016 15.8493 0 
113.588 16.5076 0 
114.025 15.4346 0 
113.813 15.5258 0 
112.946 16.4622 0 
113.928 16.0552 0 
112.866 15.0965 0 
113.155 17.101 0 
113.826 16.5382 0 
113.355 16.574 0 
113.058 15.5004 0 
113.976 15.0635 0 
114.482 16.4662 0 
114.483 16.1634 0 
112.103 16.1991 0 
114.706 16.8367 0 
112.431 14.8247 0 
113.853 17.0678 0 
113.182 15.8772 0 
112.483 16.5102 0 
113.364 15.0086 0 
112.439 14.811 0 
112.577 16.5135 0 
113.631 15.8951 0 
113.66 16.0924 0 
112.994 14.9351 0 
113.369 16.5614 0 
113.212 15.6251 0 
112.505 16.9545 0 
112.274 15.2504 0 
114.832 16.3541 0 
114.287 17.4086 0 
113.418 15.4037 0 
114.355 17.3351 0 
113.335 16.2519 0 
112.911 16.1394 0 
113.072 16.2698 0 
113.321 15.164 0 
114.467 16.4955 0 
113.44 16.0151 0 
114.716 17.0532 0 
113.071 16.4362 0 
112.88 15.6153 0 
114.24 15.9314 0 
113.236 15.7258 0 
112.902 16.068 0 
112.438 16.2947 0 
114.09 16.5332 0 
112.487 16.4574 0 
113.616 16.4695 0 
112.358 16.0637 0 
114.422 16.6688 0 
113.112 16.6225 0 
112.931 15.8594 0 
112.662 16.9079 0 
114.187 17.4691 0 
114.116 15.8078 0 
112.494 16.1733 0 
112.56 16.6333 0 
112.488 14.7687 0 
113.644 16.0967 0 
113.776 16.3993 0 
113.399 16.0338 0 
113.654 16.9058 0 
112.972 16.0723 0 
113.578 15.1812 0 
114.062 16.3579 0 
112.938 16.0716 0 
114.691 16.5768 0 
114.033 16.6454 0 
113.271 16.1339 0 
113.336 16.3243 0 
112.371 15.4025 0 
113.662 17.0168 0 
113.982 17.1313 0 
113.181 15.6648 0 
113.833 16.7531 0 
114.747 16.7485 0 
113.911 15.9059 0 
112.327 15.8999 0 
112.668 17.1551 0 
112.956 15.917 0 
113.908 15.3804 0 
112.937 16.2924 0 
113.557 15.6768 0 
113.573 15.3727 0 
113.642 15.3725 0 
113.48 16.4136 0 
113.641 15.476 0 
112.568 16.6373 0 
112.505 16.4432 0 
114.823 16.5069 0 
114.019 16.2625 0 
113.34 14.8713 0 
112.875 16.6401 0 
112.892 16.1092 0 
113.431 16.4392 0 
114.279 16.6095 0 
114.066 16.4014 0 
112.713 16.0004 0 
113.931 16.4836 0 
113.04 16.6768 0 
112.742 16.395 0 
113.013 16.5182 0 
112.328 16.1508 0 
113.491 16.3771 0 
113.786 16.5026 0 
113.274 15.8294 0 
113.134 16.0814 0 
113.018 16.1469 0 
113.039 16.0879 0 
113.978 15.3431 0 
113.637 16.1666 0 
113.293 15.783 0 
114.132 16.7444 0 
114.585 16.424 0 
112.473 17.4175 0 
112.674 17.1763 0 
114.589 14.8838 0 
113.089 16.8306 0 
114.059 16.1076 0 
113.375 15.7344 0 
113.565 16.7665 0 
114.043 17.0373 0 
113.067 16.6279 0 
112.951 16.7176 0 
113.338 16.1911 0 
114.793 16.8371 0 
114.597 14.8942 0 
113.5 15.9453 0 
112.153 16.0897 0 
114.663 17.2348 0 
114.376 16.5106 0 
112.561 16.683 0 
113.331 16.2129 0 
113.258 16.9162 0 
[...]
      <PointData Vectors="vector">
        <DataArray type="Float32" Name="Velocity" NumberOfComponents="3" format="ascii">

-96.1917 46.1201 0 
-96.3026 17.0039 0 
-96.5158 16.4986 0 
-96.6009 17.0339 0 
-96.504 16.8525 0 
-69.7056 -74.2521 0 
-50.5779 -85.9173 0 
-60.5818 -68.6363 0 
-75.2998 -68.3152 0 
-73.854 -65.3696 0 
-55.2738 -26.8592 0 
-64.2194 -71.3452 0 
-70.123 -70.6329 0 
-70.0021 -69.8315 0 
-56.1903 -83.3574 0 
-50.6433 -79.7774 0 
-73.3633 -64.8196 0 
-60.31 -65.7825 0 
-55.8058 -25.4309 0 
-68.8 -72.12 0 
-75.3668 -57.5661 0 
-76.7779 -59.0901 0 
-71.3321 -59.6598 0 
-70.9953 -73.1411 0 
-71.5323 -63.9567 0 
-68.7866 -64.2464 0 
-64.4536 -87.2777 0 
-74.4124 -69.1395 0 
-55.9681 -26.4917 0 
-59.1449 -62.7695 0 
-99.5332 -17.6605 0 
-45.678 -99.6287 0 
-64.7398 -61.7824 0 
-79.3959 -56.6773 0 
-68.1502 -36.6813 0 
-72.991 -64.6342 0 
-77.9594 -45.1827 0 
-43.575 -62.6998 0 
-99.447 -46.8836 0 
-89.8227 -65.8505 0 
-79.4967 -3.56428 0 
-80.3013 -66.2539 0 
-99.3158 -50.2092 0 
-86.1606 -54.4926 0 
-79.5585 -15.754 0 
-55.808 -58.1031 0 
-99.3417 -69.0537 0 
-85.7612 -54.5976 0 
-79.5098 -2.96638 0 
-66.0185 -60.8371 0 
-49.6836 -50.2475 0 
-91.7868 -34.1313 0 
-96.4356 -45.9574 0 
-97.0038 -55.5885 0 
-65.3973 -63.1481 0 
-84.2703 -10.2228 0 
-77.5279 -44.4929 0 
-97.2789 -40.3016 0 
-55.4243 -14.9548 0 
-51.466 -21.4738 0 
-98.9114 5.23767 0 
-52.5749 -12.1021 0 
-71.1481 -21.8765 0 
-59.5448 -26.0824 0 
-53.5947 9.66764 0 
-98.0071 15.7468 0 
-94.1685 -49.5426 0 
-79.8996 -47.961 0 
-43.1332 -14.7767 0 
-92.6763 -25.0997 0 
-32.3164 -19.1509 0 
-46.4499 -18.1449 0 
-93.4383 -51.1661 0 
-78.0803 -49.064 0 
-72.3719 -24.8107 0 
-55.5898 -9.78784 0 
-86.7183 -31.8017 0 
-39.4739 -24.8288 0 
-43.3283 -6.53324 0 
-44.054 -20.8625 0 
-86.4838 -29.673 0 
-89.2813 -34.0193 0 
-75.3952 -33.6947 0 
-57.4892 -15.815 0 
-97.6168 -52.9208 0 
-69.1899 -12.9415 0 
-49.8698 1.91235 0 
-44.9339 -28.1073 0 
-46.3146 -19.9558 0 
-77.731 -20.245 0 
-93.8428 -43.23 0 
-99.1898 8.19649 0 
-94.3996 -47.7508 0 
-91.3564 -36.6362 0 
-92.5785 -45.7164 0 
-82.7352 -27.9618 0 
-86.9486 -45.7863 0 
-46.002 -21.0003 0 
-99.2241 33.899 0 
-92.8425 -30.9377 0 
-45.7975 -9.02109 0 
-71.3373 -14.1392 0 
-85.298 -36.9039 0 
-92.686 -48.3225 0 
-49.3051 -25.0514 0 
-51.5806 -21.3888 0 
-91.8659 -38.2455 0 
-46.3993 -22.887 0 
-73.7745 -5.04733 0 
-79.2931 -27.6024 0 
-94.1453 -22.2449 0 
-38.771 -17.5787 0 
-82.0444 -31.583 0 
-87.8223 -45.4193 0 
-58.3491 -16.385 0 
-45.3001 -18.6905 0 
-44.5199 2.41446 0 
-91.5389 -30.5977 0 
-55.8997 5.35186 0 
-93.0436 -24.6591 0 
-45.3494 -22.524 0 
-77.1568 -20.7627 0 
-83.5162 -26.9796 0 
-42.0178 -28.3128 0 
-47.8256 -24.5386 0 
-49.8004 -21.6684 0 
-76.8015 -14.5047 0 
-98.6389 37.8401 0 
-67.6058 -7.61794 0 
-93.5359 -55.2402 0 
-90.8123 -37.0337 0 
-78.8208 -22.0893 0 
-75.6884 -28.4553 0 
-39.5927 -19.9694 0 
-96.7448 -47.973 0 
-94.6097 -27.2289 0 
-86.7688 -18.2099 0 
-56.0439 -34.4099 0 
-98.7905 -33.9861 0 
-69.6124 -8.89758 0 
-93.019 -22.3685 0 
-79.5799 -6.2612 0 
-98.2409 -35.6879 0 
-83.3571 -15.3275 0 
-92.0359 62.3549 0 
-97.1623 28.5398 0 
-90.3442 12.4661 0 
-68.5049 -8.44147 0 
-32.1022 40.9132 0 
-78.8508 19.2106 0 
-32.257 42.386 0 
-76.0988 42.3685 0 
-79.9908 16.366 0 
-89.5996 12.7527 0 
-70.4979 40.79 0 
-96.9688 24.0409 0 
-71.8706 17.9994 0 
-83.9574 14.1543 0 
-75.9277 5.58513 0 
-68.5668 38.1544 0 
-69.9204 41.3109 0 
-51.0337 18.603 0 
-89.758 64.2146 0 
-74.5906 79.9687 0 
-78.8971 -13.6467 0 
-44.1692 65.0064 0 
-89.9261 55.2265 0 
-44.3018 65.0187 0 
-74.9382 72.5017 0 
-89.9886 83.7331 0 
-43.8852 79.5827 0 
-96.0754 44.7222 0 
-66.5794 94.3348 0 
-44.231 63.8202 0 
-44.2759 64.9895 0 
-74.6292 75.0165 0 
-89.6211 89.9957 0 
-68.794 88.5956 0 
-69.4084 94.9917 0 
-69.1251 94.9855 0 
-75.5943 90.4456 0 
-74.6362 74.7969 0 
-87.9676 49.4316 0 
-43.3821 26.9202 0 
-87.0686 55.3335 0 
-90.2962 90.3183 0 
-66.7987 89.6926 0 
-94.5493 69.9762 0 
-34.6538 70.625 0 
-46.9079 11.4932 0 
-84.4843 -13.683 0 
-69.4298 63.7092 0 
-96.494 24.1575 0 
-96.8556 48.6517 0 
-92.0117 69.5379 0 
-96.8247 55.807 0 
-69.2773 69.6924 0 
-94.7722 64.9369 0 
-96.8257 55.848 0 
-96.923 50.3373 0 
-97.2441 52.4293 0 
-88.3552 56.5421 0 
-94.5069 94.8084 0 
-93.3162 77.7264 0 
-96.7653 50.1126 0 
-94.6771 64.8184 0 
-96.7489 54.3966 0 
-96.9789 50.5426 0 
-52.3717 -72.0024 0 
-89.1025 -79.7579 0 
-77.8002 -50.6833 0 
-75.5316 -61.5785 0 
-69.5182 -49.889 0 
-75.549 -70.6204 0 
-67.8964 -52.3823 0 
-75.1631 -61.0757 0 
-83.0925 -56.049 0 
-63.6526 -65.9438 0 
-82.952 -81.2433 0 
-46.0436 -68.6639 0 
-44.9888 -52.7027 0 
-37.7551 -74.925 0 
-67.4041 -80.3294 0 
-59.7613 -74.5684 0 
-85.8676 -51.2994 0 
-73.3017 -53.1723 0 
-55.6235 -64.5779 0 
-79.1749 -89.1447 0 
-34.9408 -58.1637 0 
-45.4392 -90.7165 0 
-66.359 -57.4738 0 
-74.2698 -42.71 0 
-46.1398 -67.8488 0 
-70.3712 -55.2311 0 
-76.5976 -50.236 0 
-74.9589 -40.4352 0 
-81.6618 -68.4224 0 
-38.263 -74.0509 0 
-50.1877 -66.6667 0 
-78.1725 -51.2134 0 
-72.6354 -54.5956 0 
-87.1421 -81.0918 0 
-52.4652 -79.68 0 
-56.8628 -90.2933 0 
-69.902 -43.1399 0 
-87.1521 -47.8237 0 
-41.8617 -42.4593 0 
-71.6654 -48.053 0 
-68.9439 -52.0219 0 
-75.3694 -89.6969 0 
-62.4513 -58.2416 0 
-91.9901 -79.7461 0 
-61.0582 -74.7254 0 
-86.4989 -61.2242 0 
-58.7511 -54.2659 0 
-84.3121 -54.1561 0 
-88.8893 -77.4617 0 
-45.9222 -83.6727 0 
-88.3454 -89.4249 0 
-80.642 -67.9514 0 
-77.8336 -58.9015 0 
-78.1773 -48.1597 0 
-72.0559 -73.9368 0 
-75.5895 -53.5403 0 
-57.7022 -89.3423 0 
-59.403 -89.5306 0 
-70.9794 -82.1641 0 
-66.1339 -48.1112 0 
-71.7112 -49.8292 0 
-42.0485 -99.2081 0 
-33.0061 -49.7317 0 
-73.4979 -55.8197 0 
-67.4415 -98.8767 0 
-77.9129 -53.6804 0 
-88.0077 -33.2193 0 
-48.4029 -58.4013 0 
-79.2223 -45.4319 0 
-68.9183 -30.744 0 
-82.6425 -10.9386 0 
-45.5424 -56.5713 0 
-77.4338 -57.5612 0 
-50.891 -57.7297 0 
-66.4675 -61.8114 0 
-71.8185 -69.4971 0 
-68.4082 -59.1514 0 
-96.621 -53.3466 0 
-63.3488 -55.2577 0 
-76.095 -40.2053 0 
-85.0677 -41.8585 0 
-82.0737 -48.3949 0 
-74.9043 -50.5039 0 
-71.3113 -82.6563 0 
-79.8316 -10.0962 0 
-52.3531 -66.2073 0 
-89.5933 -10.6671 0 
-89.7556 -58.6858 0 
-60.7288 -32.6551 0 
-71.68 -32.835 0 
-67.7645 -60.1396 0 
-72.3997 -18.5733 0 
-73.1449 -5.64161 0 
-75.3473 -45.6982 0 
-75.7994 -13.1282 0 
-62.3376 -98.9668 0 
-98.4762 -59.9081 0 
-60.3482 -56.8258 0 
-42.9462 -79.0719 0 
-74.4996 -68.3292 0 
-72.5043 -16.4523 0 
-58.7721 -56.358 0 
-63.6238 -65.6244 0 
-46.6559 -57.2566 0 
-52.0884 -72.6756 0 
-86.6142 -74.068 0 
-44.2626 -19.9545 0 
-87.1999 -37.2151 0 
-50.4538 -67.1479 0 
-74.4604 -70.7161 0 
-42.3578 -48.5129 0 
-74.7905 -60.809 0 
-83.964 -23.5941 0 
-88.7349 -35.5665 0 
-37.5344 -41.1125 0 
-57.4905 -64.147 0 
-46.0654 -67.8894 0 
-54.4788 -64.114 0 
-75.9603 -78.8603 0 
-57.3029 -66.9832 0 
-52.3014 -63.3295 0 
-60.4988 -59.3294 0 
-62.0506 -60.8792 0 
-61.6809 -56.3902 0 
-57.3109 -69.452 0 
-69.6964 -59.1145 0 
-54.4445 -59.0357 0 
-80.137 -12.6669 0 
-90.0132 -30.5172 0 
-82.8482 -35.0779 0 
-40.7988 -54.0795 0 
-89.4775 -37.5772 0 
-60.0522 -46.4292 0 
-69.9943 -58.0381 0 
-54.0746 -65.3935 0 
-70.1857 -27.8272 0 
-40.7003 -41.5482 0 
-97.4955 -58.1396 0 
-72.9909 -38.709 0 
-68.7803 -59.2202 0 
-56.9611 -54.5484 0 
-57.4288 -41.9337 0 
-71.8086 -34.943 0 
-47.9736 -62.099 0 
-49.5327 -58.1392 0 
-98.9281 -51.189 0 
-62.5359 -68.5111 0 
-63.3621 -33.2428 0 
-41.775 -67.1978 0 
-74.3542 -82.188 0 
-69.2798 -38.4069 0 
-45.1389 -58.9892 0 
-79.3389 -24.688 0 
-49.7252 -66.0593 0 
-69.9661 -34.9574 0 
-63.1858 -32.8671 0 
-88.8795 -59.3846 0 
-58.7802 -66.1877 0 
-68.9458 -38.929 0 
-62.5873 -99.0057 0 
-65.7188 -39.3266 0 
-75.8065 -59.468 0 
-79.8874 -31.9594 0 
-78.9396 -96.1481 0 
-28.3782 -60.9048 0 
-89.3918 -13.5861 0 
-89.7131 -9.97944 0 
-43.6625 -78.9264 0 
-60.7219 -52.8271 0 
-59.3195 -58.5499 0 
-85.8843 -63.1828 0 
-95.5552 -80.4635 0 
-80.1003 -28.2711 0 
-84.1536 -42.6608 0 
-44.8935 -56.3646 0 
-64.6802 -70.0851 0 
-73.3697 -26.7204 0 
-61.0995 -58.2794 0 
-89.4108 -33.8351 0 
-89.7199 -9.9801 0 
-68.7628 -61.197 0 
-65.2666 -43.9797 0 
-92.8227 -53.2928 0 
-61.9521 -61.7749 0 
-73.5728 -74.3833 0 
-76.8838 -55.3731 0 
-67.5503 -52.7141 0 
-71.0417 -31.8866 0 
-70.2401 -32.669 0 
-66.5146 -57.8774 0 
-61.8786 -60.4542 0 
-89.7119 -9.99103 0 
-69.7798 -67.6796 0 
-56.7246 -58.2917 0 
-79.0057 -63.9177 0 
-76.6767 -26.551 0 
-54.9513 -73.3304 0 
-35.7885 -57.0505 0 
-34.1651 -46.1714 0 
-73.635 -78.3541 0 
-69.1001 -81.1236 0 
-40.3456 -71.4987 0 
-57.9815 -64.9553 0 
-82.3821 -45.7765 0 
-68.9339 -20.3481 0 
-70.86 -63.0605 0 
-22.5609 -52.8462 0 
-43.459 -79.0787 0 
-91.1833 -54.2129 0 
-61.1912 -57.2379 0 
-76.9495 -80.8624 0 
-55.171 -61.5896 0 
-85.7973 -13.8092 0 
-66.4959 -54.4108 0 
-46.7828 -67.3401 0 
-41.1508 -42.5943 0 
-69.3203 -38.5469 0 
-73.51 -62.7644 0 
-62.9063 -53.3056 0 
-73.1641 -59.3604 0 
-68.8777 13.2976 0 
-65.8424 -19.3901 0 
-84.5658 30.6144 0 
-77.7028 1.74634 0 
-50.7449 -13.027 0 
-53.9036 20.6389 0 
-85.5304 25.9962 0 
-55.4354 1.07457 0 
-44.0873 -10.0336 0 
-29.8593 -0.816914 0 
-58.4738 19.6183 0 
-71.4787 1.86592 0 
-51.7176 16.2248 0 
-82.1949 -4.90326 0 
-59.6345 6.04401 0 
-60.533 -4.76573 0 
-60.6319 0.0749347 0 
-45.9515 -0.686448 0 
-66.457 -14.8575 0 
-70.1908 -15.6381 0 
-66.9156 5.4109 0 
-55.9521 -44.5007 0 
-64.7625 -15.302 0 
-54.4628 -10.1792 0 
-49.6426 -21.4617 0 
-74.6562 -5.67626 0 
-31.7535 26.7802 0 
-49.521 -5.17885 0 
-36.2402 -19.595 0 
-63.4999 -10.0174 0 
-63.3046 -2.53322 0 
-40.431 -14.9003 0 
-46.8194 27.1641 0 
-30.5995 24.146 0 
-65.7805 8.69111 0 
-64.8537 1.02588 0 
-67.5629 23.4873 0 
-69.017 4.64465 0 
-30.7914 -20.108 0 
-43.5945 -4.59514 0 
-58.7298 3.40049 0 
-80.0862 1.92095 0 
-75.6183 -6.94569 0 
-73.2836 -28.2581 0 
-68.8711 -16.5668 0 
-53.5923 -7.58257 0 
-88.5901 29.4679 0 
-90.8765 -37.7541 0 
-68.476 -2.49512 0 
-80.2701 4.31011 0 
-66.2593 -0.528004 0 
-74.0145 -6.74818 0 
-73.4182 -38.3938 0 
-53.9122 6.25072 0 
-51.3929 -35.6542 0 
-47.592 34.17 0 
-74.5357 21.9712 0 
-64.9106 -4.95645 0 
-67.8086 -34.862 0 
-38.5131 -24.2279 0 
-36.7029 3.34113 0 
-77.0753 14.6016 0 
-48.6059 1.7813 0 
-48.0651 -54.1599 0 
-71.1364 -13.5979 0 
-32.0535 -5.97657 0 
-61.8172 10.6519 0 
-53.0895 -11.7663 0 
-60.6682 41.5667 0 
-83.6146 1.57358 0 
-65.6255 -5.20111 0 
-58.988 -17.4742 0 
-60.9265 -21.9972 0 
-68.2539 -36.5342 0 
-53.9717 6.96833 0 
-47.2371 6.19658 0 
-43.6088 -1.50609 0 
-58.0793 -2.42504 0 
-75.4515 1.62562 0 
-57.1265 14.0677 0 
-67.7876 -5.95323 0 
-59.6619 -1.08472 0 
-83.0157 7.58096 0 
-48.1181 8.02911 0 
-75.3665 -14.1512 0 
-48.3288 31.4239 0 
-47.2656 -17.8972 0 
-66.0104 0.580246 0 
-64.5754 -11.2083 0 
-71.9027 -42.2478 0 
-60.2573 7.29351 0 
-69.9397 5.28978 0 
-59.6546 -14.9444 0 
-30.521 -12.3498 0 
-66.0908 5.50835 0 
-69.2269 -9.02024 0 
-44.8577 -40.029 0 
-85.9126 8.08086 0 
-80.2809 2.45148 0 
-33.1565 -9.53941 0 
-43.6242 -58.4599 0 
-50.4892 -0.700372 0 
-73.1677 -18.1513 0 
-52.2704 -0.486269 0 
-53.648 12.7525 0 
-67.614 1.80544 0 
-66.5974 -0.285513 0 
-64.9894 9.1978 0 
-69.8043 19.022 0 
-70.0194 -3.11549 0 
-84.4414 27.3324 0 
-43.182 36.5375 0 
-88.5121 25.5553 0 
-50.107 -8.48556 0 
-70.9537 -1.95405 0 
-86.3552 -29.8964 0 
-66.8802 -4.10083 0 
-83.3223 7.5427 0 
-68.1633 -9.51058 0 
-56.3773 -7.26297 0 
-80.4878 -5.76004 0 
-75.3601 -11.2777 0 
-30.463 -11.9719 0 
-73.7567 -26.5819 0 
-37.3954 5.86045 0 
-50.6531 -4.72192 0 
-64.1161 -0.590416 0 
-59.7064 -9.22049 0 
-70.4057 -16.6911 0 
-78.11 -17.7098 0 
-62.3304 4.23983 0 
-76.902 13.7378 0 
-83.5022 -2.43068 0 
-65.5801 13.5817 0 
-54.337 -8.22362 0 
-61.6101 -6.05029 0 
-55.858 -0.0482172 0 
-79.1021 -19.2055 0 
-84.3421 25.209 0 
-64.4115 -2.61415 0 
-70.0957 -1.38434 0 
-69.9602 0.264243 0 
-72.5078 -4.35374 0 
-86.7547 -17.861 0 
-61.2635 3.40115 0 
-61.0069 -8.44739 0 
-47.1178 -0.198837 0 
-45.3761 3.18008 0 
-50.3251 -8.09567 0 
-59.4888 -5.08005 0 
-81.2814 23.1584 0 
-44.4015 -4.67546 0 
-63.3186 4.048 0 
-74.407 14.5623 0 
-51.9423 2.42502 0 
-52.8821 0.35925 0 
-41.1933 -52.0999 0 
-37.1856 35.0777 0 
-59.673 -1.86137 0 
-38.8418 21.5231 0 
-42.5573 27.1172 0 
-78.8562 -46.3657 0 
-71.4435 -62.4938 0 
-41.3434 -51.6119 0 
-44.3431 -10.5435 0 
-58.7123 -17.7446 0 
-72.423 -45.3168 0 
-59.7392 -13.7814 0 
-72.3921 -17.8837 0 
-47.3816 -18.9189 0 
-74.482 14.3382 0 
-77.0939 -23.2216 0 
-52.5695 -19.8557 0 
-59.3221 1.50409 0 
-57.0081 2.02016 0 
-53.8294 -14.7644 0 
-53.6028 -1.64597 0 
-53.9139 4.547 0 
-63.4772 -10.5951 0 
-55.1516 -15.0463 0 
-54.7266 -0.837822 0 
-74.0104 -5.40526 0 
-63.5863 -5.04603 0 
-69.8472 0.0567758 0 
-45.0276 -61.2366 0 
-44.1144 27.8383 0 
-55.7702 3.43694 0 
-49.4098 40.0405 0 
-39.5389 30.2876 0 
-92.7813 -0.768643 0 
-51.257 -6.89617 0 
-38.072 15.5547 0 
-86.8426 10.4751 0 
-80.0182 21.6876 0 
-55.584 -0.644575 0 
-48.846 -14.7678 0 
-54.7538 6.99912 0 
-27.3134 -4.52946 0 
-59.6323 17.1967 0 
-98.9369 9.52276 0 
-52.6883 -49.19 0 
-35.1761 -10.2157 0 
-58.2597 6.38481 0 
-30.0347 -2.55058 0 
-64.0898 -9.62801 0 
-59.4202 23.412 0 
-64.9103 9.11739 0 
-79.3419 -37.6539 0 
-42.8686 -50.5972 0 
-63.1669 -4.18242 0 
-28.7581 -15.7261 0 
-61.8414 -5.93118 0 
-61.7602 -7.36026 0 
-64.0094 -33.4582 0 
-65.0332 -7.20607 0 
-60.0771 -2.51038 0 
-71.7378 -11.5878 0 
-59.652 -2.93017 0 
-63.8851 4.93546 0 
-54.3524 -39.4249 0 
-58.9457 -17.6339 0 
-31.4062 26.9843 0 
-64.5052 -12.6904 0 
-67.5932 -14.8868 0 
-89.1895 -21.7532 0 
-48.3159 9.85457 0 
-64.5061 -2.1823 0 
-60.9885 6.6696 0 
-53.5064 -5.36528 0 
-60.512 -0.483653 0 
-46.5598 -48.3067 0 
-68.5609 -7.17913 0 
-56.2975 0.340055 0 
-63.2176 -17.3692 0 
-53.9982 5.90522 0 
-73.0057 4.89322 0 
-66.4919 -29.7252 0 
-56.2642 -0.0632979 0 
-87.7036 4.76034 0 
-52.1704 -41.7456 0 
-69.234 23.0211 0 
-84.4761 22.4909 0 
-48.9702 -44.3788 0 
-78.4733 -53.3603 0 
-75.4104 -7.94497 0 
-43.4027 31.3088 0 
-56.5575 0.398789 0 
-70.0639 -3.58785 0 
-89.2355 -15.6107 0 
-58.0668 -5.7997 0 
-40.207 -10.3371 0 
-38.9037 25.29 0 
-60.7259 -9.5107 0 
-58.5277 -9.29028 0 
-92.8599 -30.225 0 
-93.7651 13.2375 0 
-45.4517 -38.7888 0 
-63.92 -4.69916 0 
-98.8705 -31.0112 0 
-63.3351 -4.63402 0 
-68.2672 -12.5411 0 
-24.3717 27.132 0 
-39.2711 -15.2688 0 
-51.7026 -3.88997 0 
-32.1883 16.91 0 
-35.5515 2.58565 0 
-69.6263 -11.2183 0 
-29.0141 56.5133 0 
-69.6648 -28.7741 0 
-39.4573 -2.19113 0 
-69.1449 -38.5219 0 
-78.9973 37.9579 0 
-78.1876 -9.91526 0 
-51.7801 31.2534 0 
-48.6381 2.16563 0 
-53.7897 31.1946 0 
-82.2092 -34.9957 0 
-29.9369 -12.5189 0 
-81.5892 -13.1334 0 
-59.6824 -28.163 0 
-30.03 38.2091 0 
-81.7658 1.65934 0 
-73.8242 -2.57207 0 
-71.5016 -38.7366 0 
-55.9037 18.2016 0 
-81.2992 -5.43694 0 
-82.0453 2.63844 0 
-35.5398 -6.03685 0 
-82.87 5.65916 0 
-67.1019 -38.6523 0 
-71.1725 -33.544 0 
-75.9792 38.9595 0 
-43.6899 45.5787 0 
-91.9027 8.79067 0 
-80.8161 -7.47713 0 
-76.578 4.94075 0 
-88.5841 -32.7946 0 
-89.9196 19.2724 0 
-80.0322 -9.8217 0 
-41.7336 -10.3261 0 
-81.0507 11.4053 0 
-39.7929 -0.446642 0 
-59.3316 -31.699 0 
-69.3675 -29.5945 0 
-58.1123 -13.4342 0 
-44.7466 1.86796 0 
-68.9943 -38.4018 0 
-59.4809 -27.4386 0 
-66.3557 -28.1056 0 
-44.7937 43.6472 0 
-94.1556 -16.1317 0 
-45.0284 1.9988 0 
-49.5661 -19.5548 0 
-66.0828 -33.574 0 
-67.1839 37.2826 0 
-58.0021 -9.01518 0 
-66.7761 -26.7053 0 
-60.9647 -34.2764 0 
-52.1456 27.833 0 
-73.6652 -10.1788 0 
-24.271 27.3208 0 
-75.4489 -20.1913 0 
-77.8519 31.9093 0 
-44.7126 49.8153 0 
-67.3905 -34.3656 0 
-68.5657 -37.4062 0 
-65.7894 10.6348 0 
-77.5654 -1.45084 0 
-74.2575 -33.2572 0 
-68.5214 37.1894 0 
-57.4933 12.7397 0 
-71.6361 -4.47856 0 
-67.7225 26.8737 0 
-45.3266 -32.9996 0 
-34.5523 67.2164 0 
-78.1992 27.3686 0 
-75.8914 25.5152 0 
-17.8558 62.3999 0 
-78.1406 32.212 0 
-96.0227 34.011 0 
-76.0282 32.0813 0 
-70.6406 32.0594 0 
-69.3838 21.9066 0 
-91.0154 -2.01615 0 
-91.7849 -12.0716 0 
-89.2753 6.27677 0 
-21.7165 59.9762 0 
-71.5776 43.4687 0 
-53.5849 38.8663 0 
-62.8643 32.8495 0 
-7.55996 62.068 0 
-99.0373 8.52774 0 
-5.71566 60.6518 0 
-4.97797 63.4584 0 
-87.4494 41.6586 0 
-74.8076 24.5411 0 
-13.6015 2.02494 0 
-75.9731 24.7795 0 
-9.54605 77.6671 0 
-62.6476 18.7476 0 
-69.1278 63.1915 0 
-46.526 62.4946 0 
-47.1298 63.8219 0 
-90.7755 74.0546 0 
-36.6289 59.425 0 
-60.5434 57.4384 0 
-60.8756 63.1746 0 
-67.1601 57.1886 0 
-53.2918 65.9021 0 
-54.3764 50.4607 0 
-63.2653 64.2137 0 
-53.4404 65.178 0 
-41.9712 54.6796 0 
-72.1284 74.4766 0 
-66.5966 56.797 0 
-50.0719 55.6672 0 
-36.265 68.1078 0 
-32.9911 62.3698 0 
-60.6578 64.6798 0 
-62.8232 74.0229 0 
-55.7277 68.4444 0 
-78.036 56.4761 0 
-63.9497 65.5971 0 
-39.1764 65.9626 0 
-63.6448 63.5916 0 
-69.0698 63.4542 0 
-54.3094 60.9048 0 
-59.1662 67.4568 0 
-79.7883 58.2891 0 
-52.9801 62.1356 0 
-69.5469 67.3843 0 
-50.5016 61.3749 0 
-59.7629 70.6099 0 
-62.1891 68.246 0 
-77.2553 94.6869 0 
-39.3234 62.9326 0 
-76.0386 56.5653 0 
-53.4742 65.1159 0 
-60.069 50.089 0 
-83.9866 94.3865 0 
-54.311 61.6637 0 
-87.9925 61.4837 0 
-36.7193 61.1453 0 
-63.6459 58.9177 0 
-66.5377 57.8631 0 
-54.6515 55.4793 0 
-73.9299 49.3264 0 
-39.5451 60.6164 0 
-49.6966 79.5547 0 
-58.5404 60.1803 0 
-29.0322 -73.032 0 
-56.9994 -89.6358 0 
-90.1653 -64.5221 0 
-48.5247 -95.6678 0 
-73.0203 -89.794 0 
-45.2584 -95.0654 0 
-11.0233 -95.3226 0 
-98.7651 -59.8307 0 
-58.7636 -60.7388 0 
-30.6364 -66.9956 0 
-50.1956 -93.4234 0 
-50.7799 -89.7131 0 
-64.4768 -65.3481 0 
-33.6961 -77.4903 0 
-17.4831 -90.2809 0 
-33.9792 -80.2895 0 
-28.4869 -73.3692 0 
-36.2715 -78.1351 0 
-80.4469 -63.9118 0 
-49.1326 -87.3004 0 
-39.6761 -70.6885 0 
-37.039 -99.1082 0 
-43.6756 -89.3758 0 
-28.0352 -79.0187 0 
-70.091 -98.8499 0 
-78.6758 -95.6677 0 
11.2622 -87.0955 0 
-17.3431 -89.4112 0 
-80.9799 -69.1895 0 
-50.0732 -85.9916 0 
-8.78766 -98.9349 0 
-42.5101 -86.2254 0 
-53.5239 -49.6557 0 
-41.1658 -59.0082 0 
-32.6728 -88.356 0 
-62.1906 -70.3902 0 
-39.2165 -98.9287 0 
-90.7549 -67.2855 0 
-88.4439 -73.9808 0 
-32.5284 -78.3723 0 
-46.9921 -95.3803 0 
-45.0108 -91.5619 0 
-64.0876 -62.127 0 
-71.4302 -99.0353 0 
-70.1167 -61.8225 0 
-71.4887 -98.9409 0 
-48.6172 -86.9176 0 
-41.9425 -71.1423 0 
-29.9518 -53.9348 0 
-60.2935 -81.4643 0 
-38.9212 -83.2018 0 
-37.5266 -79.4248 0 
-63.7472 -79.478 0 
-17.1726 -99.319 0 
-75.1475 -99.222 0 
-57.6499 -98.1755 0 
11.0483 -58.7002 0 
-56.3074 -84.4077 0 
-79.2036 -60.1684 0 
2.66231 -97.031 0 
-54.9983 -51.6333 0 
-90.403 -64.6519 0 
-20.7329 -99.2481 0 
-68.8738 -69.7881 0 
-35.0404 -79.0251 0 
-41.551 -89.8714 0 
-35.2009 -55.9374 0 
-36.0222 -77.8603 0 
-30.7849 -80.7555 0 
-53.8798 -94.4986 0 
-64.6441 -65.0029 0 
-59.7421 -42.8756 0 
-17.5025 -87.8656 0 
-29.2508 -79.1065 0 
-46.96 -60.2906 0 
-57.842 -52.3452 0 
-45.1128 -53.2659 0 
-46.0519 -74.7674 0 
-79.0597 -62.0292 0 
-34.7292 -79.6526 0 
-55.1037 -58.9202 0 
-1.81751 -67.6334 0 
4.69497 -71.9102 0 
-25.4054 -70.4115 0 
-30.1889 -80.2088 0 
-77.2161 -76.5352 0 
-41.5932 -28.1791 0 
-88.136 -40.7853 0 
-30.9099 -57.1154 0 
1.63702 -32.3546 0 
-69.9429 -57.566 0 
-72.3763 -50.7835 0 
-0.42624 -53.1325 0 
-71.7158 -56.7438 0 
-50.0494 -46.4299 0 
-60.9629 -56.2128 0 
-69.4357 -51.9942 0 
-79.3349 -14.8095 0 
-54.3445 -60.2463 0 
-68.1128 -51.6146 0 
-63.808 -49.8941 0 
-58.9592 -53.2174 0 
-70.1968 -42.1527 0 
-32.4225 -27.7512 0 
-59.9359 -38.2622 0 
-39.9386 -41.111 0 
-29.8976 -37.3335 0 
-87.6154 -16.2514 0 
-41.8868 -51.8174 0 
-64.7252 -40.3746 0 
-16.6792 -78.5107 0 
-66.3975 -34.3409 0 
-39.9328 -70.8194 0 
-63.612 -49.5055 0 
-65.241 -49.8247 0 
-37.2791 -64.2095 0 
-79.4206 -51.3138 0 
-49.8516 -64.5642 0 
-44.1778 -56.2599 0 
-67.7694 -55.0985 0 
-51.5575 -70.2065 0 
-23.2582 -39.3284 0 
-12.3351 -64.3257 0 
-47.0692 -32.4633 0 
-76.3737 -58.0232 0 
-69.9745 -55.928 0 
-51.5477 -51.6436 0 
-64.5579 -43.5408 0 
-47.4058 -37.7276 0 
-57.3591 -89.5908 0 
-21.8325 -69.2037 0 