<VTKFile type="UnstructuredGrid" version="0.1" byte_order="BigEndian">
  <UnstructuredGrid>
        <Piece NumberOfPoints="8000" NumberOfCells="0" Time= "0.205">      <Points>
        <DataArray name="Position" type="Float32"  NumberOfComponents= "3"  format="ascii">

94.2842 36.8041 0 
95.6082 6.56228 0 
96.1318 6.97428 0 
96.3304 7.04471 0 
95.6948 7.7363 0 
95.7363 19.8719 0 
94.5047 18.5639 0 
95.9869 18.4066 0 
95.693 24.366 0 
95.1186 24.1556 0 
96.331 29.7378 0 
96.8551 28.8624 0 
95.7178 32.5723 0 
95.0934 33.0318 0 
98.7722 4.23779 0 
97.8498 3.76278 0 
99.0238 3.54286 0 
99.2971 3.36026 0 
98.387 4.83646 0 
98.9914 5.88607 0 
98.0354 6.53598 0 
98.2914 4.74351 0 
98.6761 5.15344 0 
98.1809 6.37032 0 
98.7044 6.85776 0 
98.1441 7.41179 0 
96.6593 7.62999 0 
97.5917 9.25668 0 
98.3782 7.26024 0 
97.6379 9.32682 0 
96.6661 7.30727 0 
98.6573 7.13826 0 
98.2355 7.51425 0 
98.6304 8.01988 0 
97.6984 7.59326 0 
98.3274 7.05595 0 
99.1876 9.65082 0 
98.6583 8.19154 0 
97.8374 7.2749 0 
99.1939 8.85244 0 
96.8629 7.90754 0 
98.4468 8.88042 0 
98.7854 9.99383 0 
98.1792 11.5347 0 
98.4622 10.0922 0 
97.7856 9.95488 0 
96.7223 10.3185 0 
98.6144 12.3897 0 
97.4166 10.9568 0 
98.8492 16.7827 0 
98.9697 15.0355 0 
98.3107 17.5224 0 
97.1416 19.3968 0 
97.3075 22.1936 0 
98.0437 20.4614 0 
98.2495 20.5447 0 
97.2966 24.3823 0 
98.5926 22.94 0 
97.4872 23.5268 0 
97.4924 26.4821 0 
97.9649 26.3194 0 
96.6437 25.8541 0 
97.0152 26.1775 0 
99.2566 25.7562 0 
98.6193 25.4048 0 
96.8929 29.179 0 
97.2333 28.2403 0 
97.5175 31.9638 0 
98.238 31.3616 0 
97.7809 32.0949 0 
98.5685 32.5886 0 
99.3307 35.2091 0 
97.93 33.9317 0 
98.4255 35.4346 0 
96.8598 35.1874 0 
97.9616 32.9999 0 
98.5215 35.7005 0 
98.7702 35.6896 0 
97.9098 35.9902 0 
97.6928 37.5418 0 
98.9325 37.5081 0 
97.1371 38.0474 0 
100.397 1.45252 0 
100.375 1.35593 0 
100.526 1.11725 0 
101.4 0.0453825 0 
99.4761 2.16013 0 
100.853 39.8489 0 
99.3614 38.6325 0 
100.636 39.4164 0 
99.355 4.03841 0 
100.681 2.78054 0 
100.197 3.75493 0 
101.757 3.47058 0 
100.715 2.20023 0 
101.356 3.78334 0 
101.133 4.30411 0 
101.523 2.57944 0 
99.2553 5.1275 0 
100.777 6.41329 0 
100.732 6.29852 0 
100.773 6.37128 0 
100.07 6.62979 0 
101.398 5.50098 0 
99.7453 4.56658 0 
100.125 5.0446 0 
99.5892 6.98316 0 
100.497 5.5588 0 
100.452 6.36076 0 
101.258 5.50093 0 
100.931 5.87471 0 
101.732 6.17448 0 
101.377 6.03485 0 
101.495 6.92373 0 
100.104 5.70648 0 
101.175 6.29397 0 
100.557 8.21933 0 
101.567 9.76644 0 
101.597 8.14353 0 
101.181 9.53433 0 
99.3199 7.83293 0 
100.234 7.15992 0 
100.914 9.00107 0 
101.584 8.7219 0 
101.546 9.36178 0 
101.564 8.47488 0 
101.299 9.1169 0 
101.658 7.34289 0 
100.865 7.48738 0 
101.556 8.65475 0 
101.183 7.51789 0 
100.243 8.50827 0 
101.249 10.8578 0 
101.07 11.5342 0 
100.639 10.483 0 
101.114 11.2885 0 
100.16 9.71059 0 
99.9665 11.2627 0 
101.379 11.0549 0 
100.522 10.744 0 
100.582 11.9469 0 
99.868 11.4519 0 
100.953 11.5609 0 
101.314 9.7222 0 
101.344 10.2249 0 
100.696 11.9076 0 
100.668 9.96807 0 
99.4142 11.8939 0 
100.423 10.694 0 
101.25 11.0384 0 
101.748 12.4649 0 
101.325 13.8794 0 
100.847 12.8724 0 
101.538 13.5636 0 
100.824 12.8574 0 
101.292 14.9211 0 
99.5859 13.0325 0 
101.348 12.7525 0 
99.616 14.0432 0 
100.771 13.5626 0 
99.9149 12.3043 0 
100.106 16.9902 0 
100.952 16.6023 0 
100.27 15.1815 0 
99.5632 15.9589 0 
99.8737 15.3312 0 
100.978 14.9875 0 
101.439 17.4044 0 
101.469 16.6946 0 
101.459 16.4995 0 
100.586 16.4283 0 
100.937 15.7247 0 
101.765 15.6156 0 
100.151 17.1207 0 
99.6061 18.7946 0 
101.059 19.0019 0 
100.624 17.7172 0 
99.797 19.2199 0 
100.529 19.8145 0 
99.7667 19.4234 0 
100.873 18.5359 0 
101.065 17.7767 0 
99.3666 18.6916 0 
100.134 17.7815 0 
101.298 19.7156 0 
100.785 20.6277 0 
99.7872 22.0447 0 
99.5899 21.2357 0 
100.951 20.6398 0 
101.403 22.0654 0 
100.041 20.4603 0 
99.6801 24.5209 0 
99.451 23.1178 0 
100.316 23.8279 0 
101.908 23.1887 0 
101.46 25.1457 0 
101.838 23.1613 0 
100.492 25.3778 0 
101.008 25.293 0 
100.622 26.6402 0 
100.673 26.1444 0 
101.703 27.5514 0 
100.652 25.518 0 
101.358 25.5387 0 
100.957 25.8214 0 
99.9145 26.9293 0 
100.817 25.3211 0 
101.43 26.4041 0 
100.989 27.9827 0 
100.85 29.6965 0 
99.7803 29.7061 0 
101.262 28.6352 0 
100.629 28.7526 0 
100.72 32.1524 0 
101.45 30.5168 0 
101.688 30.7487 0 
100.144 31.0898 0 
101.871 31.0877 0 
101.725 34.6671 0 
99.5232 35.0411 0 
101.711 33.3516 0 
100.448 33.528 0 
99.4203 36.7093 0 
101.678 37.2886 0 
101.205 36.3061 0 
101.492 35.9088 0 
101.049 36.6652 0 
99.9855 36.4766 0 
99.7719 38.4074 0 
100.193 39.0933 0 
100.31 37.6692 0 
101.132 37.7047 0 
101.732 37.6724 0 
99.9101 38.8356 0 
102.97 0.317725 0 
101.82 38.9925 0 
104.051 2.00724 0 
104.285 1.28106 0 
102.663 1.22219 0 
102.62 0.686526 0 
102.34 1.94485 0 
104.394 38.4622 0 
103.453 0.157663 0 
102.328 38.4926 0 
104.211 0.496775 0 
103.719 3.73665 0 
102.247 3.03615 0 
102.786 2.91134 0 
103.728 3.60316 0 
104.084 1.90489 0 
103.278 4.01562 0 
104.371 3.72655 0 
103.646 3.03264 0 
104.333 2.81897 0 
102.501 4.05701 0 
102.231 2.14971 0 
104.356 2.85883 0 
104.512 3.172 0 
104.023 2.7192 0 
104.149 3.64539 0 
102.514 3.35757 0 
103.526 4.05091 0 
103.549 4.3038 0 
102.857 3.82848 0 
103.424 3.97941 0 
102.666 3.86281 0 
103.988 4.1714 0 
102.879 3.03271 0 
101.942 4.15231 0 
103.42 3.25311 0 
102.089 3.13186 0 
103.092 2.48606 0 
103.728 4.34241 0 
103.898 5.24883 0 
102.082 5.65638 0 
102.921 5.50757 0 
101.844 5.70286 0 
101.845 5.03653 0 
104.23 7.21656 0 
104.387 4.78447 0 
103.764 5.69099 0 
103.355 4.56476 0 
101.95 5.3686 0 
103.98 6.82758 0 
104.223 6.85862 0 
103.461 5.68018 0 
102.471 5.73619 0 
103.613 4.47081 0 
102.947 6.12332 0 
103.326 6.1963 0 
103.107 5.87618 0 
104.373 5.64847 0 
103.907 5.52369 0 
103.113 7.17512 0 
102.396 5.668 0 
103.319 5.76124 0 
103.832 6.33186 0 
103.106 4.50649 0 
103.853 5.46962 0 
103.148 6.15626 0 
103.377 6.53622 0 
103.316 5.80132 0 
102.461 4.62197 0 
102.335 6.21077 0 
103.866 6.27641 0 
103.921 6.744 0 
103.497 5.98389 0 
102.817 5.00065 0 
102.162 4.6903 0 
104.086 4.88039 0 
103.392 7.28327 0 
103.059 8.73671 0 
102.729 8.07002 0 
104.269 9.28309 0 
102.076 8.71501 0 
102.031 9.51699 0 
103.048 7.49949 0 
102.53 8.71229 0 
103.809 8.35562 0 
103.754 7.99843 0 
102.071 7.35655 0 
103.242 7.40389 0 
103.663 8.29506 0 
102.283 9.16164 0 
103.107 7.47346 0 
103.248 7.3721 0 
102.524 9.20877 0 
103.567 7.44702 0 
102.172 9.50965 0 
102.434 7.15237 0 
104.253 6.97779 0 
102.572 9.52027 0 
102.692 9.13365 0 
104.436 9.59711 0 
102.152 9.43587 0 
102.825 8.89835 0 
102.506 8.43289 0 
103.188 11.5449 0 
103.546 11.0965 0 
102.88 11.1159 0 
103.824 10.1417 0 
102.27 12.32 0 
102.252 12.222 0 
104.222 11.2321 0 
104.217 10.2204 0 
104.2 11.8693 0 
104.446 11.1136 0 
104.214 11.3203 0 
103.549 11.7931 0 
103.735 10.491 0 
102.863 9.7415 0 
103.367 9.62947 0 
104.043 10.9414 0 
102.138 11.8172 0 
103.243 9.62882 0 
104.032 10.4929 0 
103.422 10.8449 0 
103.113 10.3129 0 
102.725 10.9211 0 
102.331 11.2459 0 
103.954 10.1646 0 
102.7 11.7776 0 
104.433 9.6246 0 
103.244 10.0753 0 
103.39 11.4871 0 
102.838 10.5369 0 
102.598 11.523 0 
102.765 10.9747 0 
103.174 9.64123 0 
103.193 11.1386 0 
102.827 10.5435 0 
102.246 11.5335 0 
103.072 10.2447 0 
103.942 11.7914 0 
103.66 10.1324 0 
102.187 10.9945 0 
104.241 11.2074 0 
103.97 13.5507 0 
102.245 12.7256 0 
103.717 12.7883 0 
102.227 13.9713 0 
103.113 13.2897 0 
102.96 12.5957 0 
101.805 13.2772 0 
102.531 14.7295 0 
101.863 12.5579 0 
103.46 12.885 0 
102.667 13.685 0 
102.221 12.9051 0 
103.495 12.1113 0 
103.243 14.3909 0 
103.803 12.9994 0 
102.998 12.611 0 
103.479 13.1118 0 
102.65 14.6254 0 
103.401 14.2647 0 
102.189 12.442 0 
103.594 13.5424 0 
103.891 14.2094 0 
103.023 12.5641 0 
103.635 14.4649 0 
102.689 14.0531 0 
102.766 12.5209 0 
103.47 12.9082 0 
103.259 12.5669 0 
103.074 13.3809 0 
103.414 12.8064 0 
102.799 12.5648 0 
103.871 14.0455 0 
103.499 12.5918 0 
102.366 12.5337 0 
103.948 12.5385 0 
103.004 12.4902 0 
102.3 13.0753 0 
102.632 15.9036 0 
102.048 14.7447 0 
102.505 15.3917 0 
103.644 16.2737 0 
101.929 15.9707 0 
102.883 16.166 0 
103.778 17.0839 0 
104.12 15.929 0 
103.785 16.8247 0 
103.274 17.4786 0 
102.939 15.3075 0 
102.255 17.1848 0 
104.386 15.3949 0 
102.601 15.1392 0 
102.531 15.4676 0 
102.737 15.0074 0 
103.862 16.7118 0 
102.487 15.13 0 
103.688 15.7112 0 
103.822 15.9431 0 
104 16.1087 0 
104.428 17.4217 0 
104.296 15.9958 0 
102.26 15.6638 0 
103.134 15.9452 0 
103.287 16.3662 0 
104.192 17.0998 0 
101.908 16.902 0 
103.452 16.7056 0 
102.985 15.8241 0 
103.016 15.9779 0 
103.624 16.9235 0 
102.568 17.0213 0 
104.282 17.1565 0 
103.963 15.37 0 
103.394 16.2873 0 
102.93 15.9416 0 
103.733 16.9802 0 
103.075 14.862 0 
104.005 16.9219 0 
103.384 17.0189 0 
103.858 16.7447 0 
104.127 16.158 0 
103.796 16.9702 0 
102.193 14.7485 0 
103.093 15.7354 0 
102.609 16.8093 0 
103.185 15.0624 0 
104.476 15.8424 0 
103.833 18.0063 0 
103.203 17.4756 0 
102.597 18.7704 0 
102.65 20.0784 0 
103.143 17.7194 0 
104.391 18.3752 0 
101.937 18.5494 0 
103.513 19.7251 0 
102.635 17.8499 0 
104.126 18.9261 0 
102.605 19.0242 0 
103.708 18.9398 0 
101.769 17.4699 0 
104.121 18.3523 0 
102.732 18.3025 0 
103.448 18.9847 0 
104.344 21.5153 0 
102.239 21.444 0 
104.412 20.4468 0 
102.136 20.1448 0 
104.343 21.3849 0 
103.648 20.0286 0 
103.568 22.4215 0 
103.67 21.0848 0 
102.116 23.7733 0 
102.916 25.1263 0 
104.16 23.4497 0 
103.012 24.8238 0 
104.165 22.5269 0 
103.855 27.7174 0 
103.191 26.7521 0 
104.115 25.3572 0 
103.449 27.629 0 
102.451 26.5279 0 
102.206 25.8212 0 
102.424 27.129 0 
102.671 27.1233 0 
103.985 26.1212 0 
103.206 26.7427 0 
103.75 26.5314 0 
104.441 27.6058 0 
102.185 25.2872 0 
103.215 26.4946 0 
103.285 27.9374 0 
104.577 30.0362 0 
102.902 27.955 0 
102.963 28.9631 0 
103.908 27.8527 0 
102.953 29.9295 0 
102.007 28.9086 0 
102.89 29.903 0 
102.776 28.7081 0 
102.022 30.0732 0 
103.838 28.8473 0 
[...]
      <PointData Vectors="vector">
        <DataArray type="Float32" Name="Velocity" NumberOfComponents="3" format="ascii">

-180.918 -28.5738 0 
-123.66 119.529 0 
-190.753 -125.868 0 
-202.131 -127.63 0 
-193.777 -114.145 0 
-195.08 -123.273 0 
-193.902 -104.966 0 
-201.612 -69.4536 0 
-187.748 -83.2971 0 
-170.576 -45.1751 0 
-148.21 -53.2313 0 
-133.089 15.5762 0 
-150.546 -12.3027 0 
-124.736 1.50278 0 
-133.55 23.6404 0 
-138.08 29.1019 0 
-170.054 -3.04731 0 
-114.747 32.1464 0 
-146.006 43.5331 0 
-111.243 51.3308 0 
-188.562 -5.04315 0 
-150.927 30.2333 0 
-144.047 97.8327 0 
-178.112 66.3107 0 
-129.776 61.9506 0 
-125.74 69.7688 0 
-124.889 91.8895 0 
-145.878 112.374 0 
-111.146 101.116 0 
-162.593 -62.6002 0 
-182.629 -117.284 0 
-162.149 -105.707 0 
-171.652 -113.033 0 
-183.356 -112.212 0 
-150.557 -114.366 0 
-152.813 -100.254 0 
-162.246 -134.877 0 
-131.98 -71.4904 0 
-147.062 -89.6926 0 
-163.381 -112.426 0 
-139.809 -107.26 0 
-147.245 -112.647 0 
-149.966 -101.056 0 
-160.806 -105.505 0 
-150.931 -115 0 
-124.893 -88.2946 0 
-141.477 -129.487 0 
-127.976 -102.358 0 
-159.672 -80.0168 0 
-164.572 -82.4067 0 
-128.09 -63.651 0 
-179.364 -72.8661 0 
-160.188 -71.7536 0 
-175.971 -71.7158 0 
-151.332 -87.303 0 
-164.754 -94.1519 0 
-171.435 -89.7845 0 
-144.011 -58.9762 0 
-158.838 -88.8644 0 
-117.23 -70.8006 0 
-177.699 -61.4121 0 
-181.826 -62.5792 0 
-154.614 -58.5382 0 
-147.472 -44.4553 0 
-141.095 -75.6236 0 
-134.7 -39.0502 0 
-131.64 -32.5739 0 
-150.971 -37.8302 0 
-161.096 -14.761 0 
-163.376 -23.2776 0 
-125.009 -20.8449 0 
-163.256 -4.46345 0 
-161.671 -31.7785 0 
-161.288 23.7337 0 
-138.578 -33.5497 0 
-152.225 35.0797 0 
-144.255 4.27914 0 
-147.592 -1.447 0 
-175.439 -12.3133 0 
-153.124 -15.3254 0 
-135.936 -4.6613 0 
-154.928 -6.71324 0 
-116.541 49.8411 0 
-104.2 22.7042 0 
-132.689 34.2913 0 
-157.014 69.6737 0 
-138.537 22.2399 0 
-122.226 34.5145 0 
-132.42 13.4888 0 
-149.372 2.24984 0 
-113.545 67.3319 0 
-99.2012 66.9075 0 
-146.812 98.6872 0 
-98.2672 78.8682 0 
-121.819 112.809 0 
-111.48 89.1801 0 
-121.022 82.5115 0 
-151.019 -142.637 0 
-150.17 -153.712 0 
-113.608 84.3082 0 
-109.591 93.603 0 
-105.647 113.612 0 
-84.6324 107.286 0 
-143.846 -145.923 0 
-152.489 -148.567 0 
-156.424 -105.288 0 
-147.642 -118.666 0 
-154.721 -133.076 0 
-138.295 -85.3293 0 
-127.124 -145.385 0 
-128.908 -107.879 0 
-140.299 -105.438 0 
-159.795 -116.314 0 
-113.637 -107.52 0 
-139.993 -132.722 0 
-142.427 -88.0036 0 
-151.894 -61.5977 0 
-141.961 -109.32 0 
-148.356 -90.896 0 
-162.862 -96.1282 0 
-137.83 -84.7177 0 
-143.594 -127.629 0 
-123.972 -83.0097 0 
-163.807 -107.665 0 
-145.174 -125.776 0 
-157.401 -72.8333 0 
-160.09 -78.0124 0 
-141.717 -99.7609 0 
-163.272 -86.4565 0 
-150.813 -91.4676 0 
-137.609 -88.2605 0 
-109.148 -94.3954 0 
-151.576 -81.8316 0 
-157.799 -46.7061 0 
-158.206 -85.8367 0 
-144.855 -70.9573 0 
-131.558 -67.9661 0 
-151.756 -91.8853 0 
-150.511 -73.2019 0 
-152.481 -94.1943 0 
-147.656 -81.9596 0 
-129.709 -69.9025 0 
-131.066 -62.7964 0 
-148.224 -80.8302 0 
-170.688 -92.2819 0 
-156.081 -73.7496 0 
-150.425 -83.0128 0 
-140.741 -77.2717 0 
-153.823 -83.7002 0 
-126.289 -113.294 0 
-147.171 -106.274 0 
-140.863 -90.7013 0 
-149.748 -69.8309 0 
-140.131 -64.8779 0 
-138.561 -46.6853 0 
-154.392 -79.5601 0 
-141.631 -87.4109 0 
-139.467 -80.7646 0 
-106.982 -100.62 0 
-146.108 -100.137 0 
-142.371 -85.5048 0 
-139.12 -67.3058 0 
-127.534 -62.0094 0 
-139.387 -93.72 0 
-165.556 -98.5439 0 
-117.4 -96.453 0 
-147.492 -68.7564 0 
-106.182 -83.7211 0 
-126.539 -77.0905 0 
-111.673 -70.7026 0 
-149.104 -84.2514 0 
-121.668 -65.864 0 
-135.661 -38.9282 0 
-166.8 -35.0404 0 
-171.572 -59.7471 0 
-155.05 -40.5327 0 
-145.38 -39.2691 0 
-114.429 -65.9696 0 
-144.474 -45.467 0 
-156.047 -31.1858 0 
-136.471 -44.768 0 
-128.45 -53.7855 0 
-142.053 -45.8601 0 
-117.699 -57.5759 0 
-137.152 -65.4383 0 
-129.786 -48.861 0 
-131.621 -32.9221 0 
-131.293 -43.4474 0 
-119.192 -71.8764 0 
-119.621 -44.1014 0 
-116.399 -66.0487 0 
-127.668 -44.6328 0 
-143.221 -55.8351 0 
-121.811 -51.8132 0 
-115.959 -44.66 0 
-164.75 -55.0445 0 
-142.352 -66.5017 0 
-158.693 -62.014 0 
-121.504 -36.5007 0 
-109.923 -23.7469 0 
-154.021 -58.2117 0 
-134.192 -44.3625 0 
-119.312 -30.8306 0 
-108.779 10.796 0 
-131.949 -16.3206 0 
-153.449 -26.9988 0 
-124.92 -76.3019 0 
-126.144 -5.8629 0 
-138.138 -48.7731 0 
-118.786 -54.5202 0 
-126.034 -41.9544 0 
-129.49 13.9741 0 
-118.072 -0.208709 0 
-128.491 10.4039 0 
-147.541 -28.2677 0 
-124.654 -15.4223 0 
-151.428 -75.8932 0 
-161.166 -23.5851 0 
-110.001 5.10594 0 
-143.564 -19.6861 0 
-109.337 -42.1441 0 
-124.309 -22.5787 0 
-131.722 -15.9347 0 
-138.352 -5.11079 0 
-132.91 -3.70091 0 
-124.534 -16.536 0 
-136.122 9.86619 0 
-133.312 -0.40882 0 
-165.584 -12.0231 0 
-124.393 7.45348 0 
-110.028 -35.4904 0 
-127.249 -29.3569 0 
-91.8508 -5.47964 0 
-133.806 11.6797 0 
-101.738 13.7668 0 
-103.121 14.1433 0 
-128.277 42.8698 0 
-130.784 21.7054 0 
-95.5829 9.13178 0 
-124.995 20.3356 0 
-126.131 56.5394 0 
-115.359 53.0139 0 
-101.888 -14.8048 0 
-105.169 33.6994 0 
-151.554 15.6262 0 
-125.523 63.6719 0 
-151.088 49.5538 0 
-133.812 32.6948 0 
-134.675 48.8453 0 
-106.045 23.0925 0 
-126.138 17.9414 0 
-144.497 30.1385 0 
-145.076 27.7089 0 
-123.906 72.0155 0 
-131.041 32.5877 0 
-128.025 33.3735 0 
-142.098 83.748 0 
-91.4385 53.9314 0 
-137.235 69.8363 0 
-100.107 45.7874 0 
-109.654 70.4212 0 
-138.859 86.8829 0 
-98.4271 45.5248 0 
-128.983 35.9096 0 
-135.204 40.6144 0 
-144.522 66.7275 0 
-116.174 63.8968 0 
-92.1448 84.0851 0 
-107.239 83.2383 0 
-99.951 94.9006 0 
-107.421 85.0746 0 
-93.6477 131.079 0 
-117.187 -156.086 0 
-123.801 127.694 0 
-135.69 133.71 0 
-110.184 115.15 0 
-108.802 130.304 0 
-115.043 -129.412 0 
-111.71 -119.07 0 
-138.57 -121.956 0 
-129.453 -148.632 0 
-117.81 -134.023 0 
-133.344 -163.533 0 
-123.36 -142.14 0 
-95.7419 -146.059 0 
-113.868 -125.03 0 
-101.743 -126.721 0 
-102.773 -140.829 0 
-165.771 -166.732 0 
-116.478 -129.779 0 
-128.568 -86.1918 0 
-139.254 -107.016 0 
-107.305 -149.07 0 
-111.146 -155.724 0 
-133.704 -147.899 0 
-139.992 -159.487 0 
-139.489 -152.848 0 
-122.376 -129.076 0 
-120.058 -129.102 0 
-113.004 -85.0935 0 
-129.587 -112.996 0 
-132.318 -105.594 0 
-108.149 -86.5417 0 
-142.213 -118.384 0 
-109.761 -125.978 0 
-129.227 -115.682 0 
-124.491 -144.719 0 
-114.234 -114.476 0 
-140.082 -120.443 0 
-92.1262 -92.2252 0 
-116.947 -68.6302 0 
-99.787 -151.144 0 
-127.034 -103.65 0 
-83.0633 -113.794 0 
-110.393 -125.498 0 
-126.607 -117.72 0 
-117.418 -100.649 0 
-137.139 -123.62 0 
-102.549 -118.569 0 
-132.696 -134.709 0 
-138.518 -123.431 0 
-116.543 -140.609 0 
-106.682 -129.224 0 
-102.781 -136.376 0 
-132.858 -139.155 0 
-135.195 -128.552 0 
-106.104 -77.8625 0 
-140.697 -127.155 0 
-145.495 -132.049 0 
-113.331 -109.038 0 
-143.329 -132.391 0 
-128.139 -108.319 0 
-119.617 -117.333 0 
-105.658 -119.693 0 
-145.214 -138.851 0 
-113.765 -109.488 0 
-113.159 -130.587 0 
-103.414 -53.3181 0 
-107.053 -79.5623 0 
-124.307 -94.3909 0 
-95.4373 -69.074 0 
-86.951 -52.5948 0 
-103.878 -78.4033 0 
-109.086 -64.1757 0 
-138.045 -72.7182 0 
-132.202 -127.458 0 
-155.61 -72.3199 0 
-127.237 -82.8515 0 
-114.465 -43.3592 0 
-132.148 -74.4778 0 
-104.694 -87.9719 0 
-87.1649 -61.5489 0 
-146.45 -68.9273 0 
-111.1 -96.4451 0 
-135.754 -100.497 0 
-96.2769 -80.245 0 
-130.987 -86.6501 0 
-108.615 -70.6704 0 
-122.297 -76.9236 0 
-103.601 -56.1234 0 
-130.218 -94.5346 0 
-105.581 -60.0305 0 
-126.023 -47.3529 0 
-126.133 -74.3846 0 
-107.964 -38.7179 0 
-112.717 -95.9848 0 
-164.956 -92.2027 0 
-125.867 -75.3826 0 
-113.087 -114.716 0 
-103.149 -82.0427 0 
-132.829 -88.9617 0 
-143.3 -126.273 0 
-92.3899 -69.4714 0 
-88.463 -64.6552 0 
-129.742 -77.4787 0 
-93.8602 -101.881 0 
-130.389 -95.5931 0 
-129.974 -117.542 0 
-113.029 -109.301 0 
-98.3422 -94.4795 0 
-106.199 -62.4512 0 
-143.665 -96.9892 0 
-107.154 -92.7956 0 
-129.086 -55.9405 0 
-86.1917 -66.9972 0 
-139.547 -93.3635 0 
-99.8452 -62.4142 0 
-99.2094 -91.8489 0 
-82.3979 -75.5353 0 
-128.568 -78.6111 0 
-97.1232 -85.9911 0 
-132.698 -81.1351 0 
-101.274 -82.305 0 
-131.168 -106.114 0 
-122.465 -81.5467 0 
-109.674 -92.7154 0 
-110.898 -68.217 0 
-137.114 -73.8736 0 
-139.442 -91.9989 0 
-134.741 -82.1933 0 
-112.736 -68.0794 0 
-134.713 -79.4037 0 
-117.047 -39.026 0 
-97.2728 -97.2232 0 
-122.478 -73.5237 0 
-109.571 -48.626 0 
-159.697 -62.8673 0 
-96.8267 -56.7488 0 
-138.683 -73.4738 0 
-139.3 -62.4733 0 
-108.877 -38.7529 0 
-147.521 -48.6611 0 
-128.228 -106.365 0 
-109.359 -70.7711 0 
-152.803 -49.4424 0 
-142.427 -73.8633 0 
-105.207 -86.6873 0 
-96.4597 -84.7468 0 
-153.443 -60.0538 0 
-136.179 -55.5453 0 
-108.84 -49.4454 0 
-149.26 -39.0756 0 
-98.6654 -52.2184 0 
-135.624 -29.8231 0 
-109.581 -55.4153 0 
-116.195 -101.232 0 
-143.897 -29.3949 0 
-115.608 -55.6042 0 
-118.233 -44.8954 0 
-106.315 -39.0179 0 
-115.142 -69.4101 0 
-134.609 -54.7211 0 
-115.877 -76.976 0 
-121.398 -59.2647 0 
-112.481 -44.9093 0 
-99.6779 -57.141 0 
-141.492 -68.5143 0 
-155.744 -69.0293 0 
-150.178 -33.6129 0 
-102.378 -55.6212 0 
-130.844 -68.2661 0 
-115.011 -34.361 0 
-135.757 -84.25 0 
-117.778 -36.233 0 
-140.226 -33.8468 0 
-96.8501 -52.5474 0 
-107.23 -40.1614 0 
-83.9373 -36.7082 0 
-165.161 -61.093 0 
-131.779 -32.8168 0 
-152.95 -64.4194 0 
-139.88 -38.3255 0 
-122.99 2.45392 0 
-108.659 -17.8568 0 
-122.792 -66.953 0 
-144.365 -69.8916 0 
-135.972 -56.6494 0 
-146.172 -39.6837 0 
-92.7849 -27.4403 0 
-149.291 -66.76 0 
-110.63 -31.8876 0 
-123.827 -53.2251 0 
-123.494 -50.3748 0 
-134.86 -58.0092 0 
-108.104 -45.5684 0 
-153.954 -62.2223 0 
-143.789 -56.7891 0 
-149.556 -51.7757 0 
-152.11 -67.379 0 
-112.892 -19.797 0 
-97.0222 -22.9173 0 
-127.787 -60.9719 0 
-149.96 -60.5847 0 
-133.825 -28.2431 0 
-85.0264 -24.7395 0 
-108.627 -17.8524 0 
-128.241 -56.4662 0 
-107.045 -58.7906 0 
-117.29 -45.771 0 
-84.9373 -38.7074 0 
-142.359 -70.0249 0 
-172.141 -32.0999 0 
-128.793 -38.3001 0 
-158.368 -35.8497 0 
-121.035 -21.0355 0 
-110.345 -12.417 0 
-131.945 -17.0915 0 
-128.332 -7.00273 0 
-131.324 2.69412 0 
-112.309 20.0806 0 
-141.599 -3.21561 0 
-103.481 -26.5129 0 
-127.633 -0.486269 0 
-107.502 23.6236 0 
-128.773 -28.1328 0 
-118.015 -28.4063 0 
-124.656 -38.2841 0 
-154.921 -10.7403 0 
-131.671 -35.5585 0 
-116.453 -34.0206 0 
-100.365 -18.9491 0 
-118.953 -53.9358 0 
-111.421 14.116 0 
-112.648 -47.964 0 
-96.2579 -17.2951 0 
-113.595 23.4977 0 
-156.541 -2.36603 0 
-102.341 -31.1994 0 
-125.894 14.4356 0 
-124.578 -12.766 0 
-97.5204 -3.85137 0 
-120.057 6.21896 0 
-110.841 0.878921 0 
-133.355 27.2944 0 
-111.645 -19.5749 0 
-127.109 31.5542 0 
-110.327 -24.8579 0 
-134.933 -3.39796 0 
-128.97 21.2718 0 
-105.985 2.52411 0 
-121.311 -30.8083 0 
-162.341 -11.4664 0 
-111.512 4.90147 0 
-106.821 -10.3537 0 
-108.338 14.6759 0 
-131.295 13.3994 0 
-132.885 24.0481 0 
-127.457 -33.6382 0 
-162.145 20.6598 0 
-119.067 -62.4214 0 
-134.04 -20.3612 0 
-116.139 3.33045 0 
-103.539 18.2912 0 
-111.703 9.80512 0 
-80.1431 -4.74123 0 
-110.395 -19.9567 0 
-106.602 13.7121 0 
-141.409 -16.5416 0 
-102.427 -16.5538 0 
-148.755 -17.3647 0 
-112.406 -6.33645 0 
-137.452 -46.7144 0 
-102.094 27.2493 0 
-140.785 -33.4946 0 
-125.71 -0.650989 0 
-133.457 16.6602 0 
-151.981 -34.6738 0 
-103.936 -2.42173 0 
-127.871 15.3877 0 
-108.343 30.5614 0 
-113.737 22.6233 0 
-149.113 8.7398 0 
-92.1137 -26.1328 0 
-110.403 -4.32283 0 
-116.496 21.5318 0 
-107.717 11.7675 0 
-153.865 21.5639 0 
-134.698 -28.0882 0 
-113.346 24.4106 0 
-166.269 -32.0045 0 
-109.011 2.03509 0 
-137.632 30.1582 0 
-86.7206 -27.3728 0 
-124.815 14.0237 0 
-102.641 -21.4347 0 
-115.932 21.5764 0 
-118.873 -30.8781 0 
-123.392 9.30378 0 
-127.227 -6.19284 0 
-118.374 -26.9435 0 
-94.9878 23.4989 0 
-106.235 -24.652 0 
-158.151 6.23346 0 
-121.56 -10.3067 0 
-101.752 20.9529 0 
-97.5501 11.7714 0 
-73.8524 34.9208 0 
-89.0766 3.17 0 
-119.231 -11.6485 0 
-77.7891 23.6545 0 
-119.1 65.573 0 
-108.293 32.9192 0 
-135.462 49.555 0 
-77.3836 24.9219 0 
-119.075 64.1255 0 
-102.132 6.07691 0 
-106.784 45.7846 0 
-126.08 40.7541 0 
-115.692 45.113 0 
-93.916 90.5467 0 
-106.885 62.7199 0 
-104.16 44.9143 0 
-108.977 46.8833 0 
-125.914 64.3504 0 
-104.749 48.773 0 
-78.1054 70.9812 0 
-73.422 46.5094 0 
-96.9067 53.52 0 
-101.751 54.3485 0 
-73.4223 37.4995 0 
-121.015 84.1097 0 
-95.6426 69.9406 0 
-78.3523 78.7587 0 
-77.8359 86.5365 0 
-92.7361 95.2755 0 
-64.0772 73.701 0 
-112.303 102.396 0 
-80.1615 95.491 0 
-180.616 -124.603 0 
-156.782 -143.672 0 
-113.501 -123.98 0 
-82.7819 -124.162 0 
-112.333 -145.806 0 
-82.9161 139.037 0 
-98.6637 -168.905 0 
-97.1348 -153.314 0 
-154.404 -93.7156 0 
-79.6209 -113.512 0 
-68.3304 -115.695 0 
-79.1829 113.942 0 
-92.6029 -134.219 0 
-89.5817 -141.14 0 
-137.405 -111.937 0 
-132.912 -117.901 0 
-188.438 -77.5818 0 
-179.454 -84.5443 0 
-168.968 -91.597 0 
-161.47 -115.213 0 
-155.513 -87.7682 0 
-137.371 -106.524 0 
-183.277 -97.0986 0 
-180.572 -104.071 0 
-167.493 -87.9474 0 
-170.893 -104.32 0 
-182.964 -88.0552 0 
-178.363 -90.8341 0 
-176.052 -101.651 0 
-166.848 -105.689 0 
-175.538 -91.5307 0 
-164.41 -81.2845 0 
-169.643 -124.268 0 
-181.819 -84.053 0 
-176.194 -135.208 0 
-178.165 -135.184 0 
-165.361 -90.5109 0 
-169.994 -101.185 0 
-189.595 -90.2809 0 
-145.772 -81.1945 0 
-178.625 -95.1777 0 
-163.658 -101.433 0 
-156.816 -101.762 0 
-168.049 -123.696 0 
-153.005 -80.9144 0 
-125.866 -112.113 0 
-127.148 -110.39 0 
-122.371 -163.127 0 
-105.797 -117.812 0 
-122.369 -162.594 0 
-132.54 -142.938 0 
-109.419 -132.934 0 
-127.571 -131.333 0 
-123.911 -157.085 0 
-141.536 -153.896 0 
-102.119 -120.93 0 
-108.844 -94.8877 0 
-121.511 -133.712 0 
-132.358 -165.509 0 
-131.475 -122.708 0 
-91.7584 -140.288 0 
-109.085 -105.317 0 
-179.213 -137.745 0 
-125.027 -129.66 0 
-129.158 -134.007 0 
-113.95 -151.208 0 
-118.372 -131.693 0 
-117.118 -94.475 0 
-121.856 -134.125 0 
-108.367 -122.512 0 
-131.812 -152.353 0 
-122.898 -119.106 0 
-173.224 -68.1706 0 
-128.295 -88.5875 0 
-147.443 -62.556 0 
-149.129 -75.113 0 
-123.516 -92.928 0 
-153.591 -98.8682 0 
-115.33 -67.42 0 
-150.223 -95.7228 0 
-161.497 -84.7535 0 
-155.537 -80.9892 0 
-145.512 -84.3871 0 
-182.632 -94.2587 0 
-137.587 -95.0471 0 
-160.092 -98.7529 0 
-137.093 -85.3172 0 
-170.271 -75.0075 0 
-171.092 -66.4812 0 
-146.119 -120.111 0 
-129.489 -85.1028 0 
-67.0851 -119.677 0 
-118.526 -130.782 0 
-117.988 -111.589 0 
-139.233 -126.288 0 
-107.825 -127.217 0 
-120.299 -98.354 0 
-139.154 -129.54 0 
-77.5508 -115.418 0 
-101.129 -99.6386 0 
-109.595 -112.845 0 
-111.705 -113.086 0 
-107.127 -113.611 0 
-116.822 -104.623 0 
-69.4749 -123.956 0 
-144.26 -98.496 0 
-118.466 -115.309 0 
-98.3223 -105.191 0 
-135.652 -109.704 0 
-109.031 -115.829 0 
-76.6583 -128.264 0 
-114.342 -122.851 0 
-86.4503 -113.912 0 
-95.2826 -132.562 0 
-117.143 -126.722 0 
-109.174 -113.635 0 
-125.014 -129.219 0 
-127.484 -124.541 0 
-135.664 -126.136 0 
-110.544 -100.575 0 
-160.643 -127.293 0 
-121.693 -111.579 0 
-88.1847 -131.958 0 
-82.2815 -85.2324 0 
-123.955 -126.907 0 
-131.311 -120.94 0 
-149.334 -116.913 0 
-96.8232 -105.18 0 
-112.382 -92.2972 0 
-100.318 -120.14 0 
-112.333 -134.195 0 
-117.878 -95.7201 0 
-68.7443 -124.871 0 
-115.866 -106.065 0 
-101.154 -99.5181 0 
-80.4634 -131.176 0 
-98.9648 -131.441 0 
-160.595 -62.7636 0 
-135.926 -59.8701 0 
-154.946 -59.1072 0 
-143.338 -81.9598 0 
-154.336 -78.9137 0 
-156.855 -65.7835 0 
-147.386 -69.0345 0 
-188.622 -72.5335 0 
-147.026 -60.2745 0 
-87.0906 -78.9763 0 
-133.094 -69.6435 0 
-135.865 -83.3926 0 
-136.59 -91.3105 0 
-74.685 -81.2216 0 
-137.647 -78.6718 0 
-125.148 -114.402 0 
-133.554 -88.2914 0 
-128.268 -82.7483 0 
-108.813 -88.2647 0 
-87.55 -78.7986 0 
-133.886 -86.6867 0 
-140.129 -91.2612 0 
-80.5695 -83.4729 0 
-150.288 -104.959 0 
-131.743 -68.2311 0 
-142.637 -92.9767 0 
-77.0129 -94.2497 0 
-106.335 -67.8409 0 
-124.916 -82.4338 0 
-117.854 -114.46 0 
-142.624 -100.696 0 
-88.8684 -90.6466 0 
-80.2951 -61.8018 0 
-139.896 -71.4445 0 
-127.792 -129.964 0 
-122.05 -93.8526 0 
-105.472 -72.1266 0 
-73.3932 -93.6538 0 
-84.9009 -97.7403 0 
-118.766 -85.0308 0 
-123.288 -76.0695 0 
-138.066 -79.2026 0 
-88.7983 -55.3004 0 
-108.874 -116.571 0 
-98.7212 -68.7097 0 
-120.91 -72.5462 0 
-167.489 -68.9964 0 
-97.1623 -60.3622 0 
-125.026 -110.143 0 
-143.671 -76.5509 0 
-74.6812 -80.9981 0 
-151.003 -92.8069 0 
-120.969 -83.4359 0 
-105.198 -81.451 0 
-119.412 -108.874 0 
-136.674 -88.0477 0 
-112.837 -106.914 0 
-86.3411 -79.0489 0 
-129.38 -98.8331 0 
-107.381 -77.0378 0 
-113.427 -62.279 0 
-89.8833 -95.7034 0 
-130.903 -88.4601 0 
-143.112 -79.1645 0 
-96.2879 -71.0393 0 
-104.549 -88.0032 0 
-134.963 -97.6757 0 
-121.682 -101.621 0 
-109.818 -86.1366 0 
-84.4841 -97.2913 0 
-129.867 -92.0266 0 
-114.714 -96.6694 0 
-163.669 -56.5862 0 
-145.894 -62.1926 0 
-137.748 -51.4766 0 
-152.393 -53.6122 0 
-155.724 -39.2856 0 
-160.088 -57.1898 0 
-121.01 -75.3829 0 
-100.846 -86.1941 0 
-117.625 -80.1478 0 
-124.245 -44.7736 0 
-120.241 -63.9479 0 
-118.787 -81.6834 0 
-128.121 -51.8409 0 
-103.151 -70.8555 0 
-63.8596 -87.4338 0 
-94.4544 -80.4397 0 
-135.559 -65.9511 0 
-96.2616 -109.355 0 
-110.88 -73.7361 0 
-104.804 -80.8527 0 
-107.835 -77.249 0 
-74.4524 -75.7394 0 
-85.3805 -109.514 0 
-77.4252 -90.2034 0 
-107.737 -62.9151 0 
-112.328 -54.1368 0 
-100.279 -51.0689 0 
-101.985 -65.9303 0 
-101.124 -100.188 0 
-91.2094 -92.8737 0 
-141.785 -68.7603 0 
-108.509 -81.9885 0 
-114.705 -68.9669 0 
-122.71 -77.0637 0 
-135.202 -73.1175 0 
-128.066 -86.1926 0 
-114.867 -90.9472 0 
-119.321 -45.0173 0 
-151.585 -51.6267 0 
-134.737 -57.1202 0 
-80.4929 -96.4404 0 
-127.686 -78.3545 0 
-137.486 -81.7436 0 
-127.021 -86.4306 0 
-113.867 -61.7772 0 
-98.4101 -84.0281 0 
-114.7 -77.7732 0 
-116.875 -72.6028 0 
-121.68 -68.0672 0 
-124.887 -90.7889 0 
-122.286 -71.6781 0 
-102.347 -68.0692 0 
-101.268 -58.3804 0 
-102.413 -64.0693 0 
-100.955 -63.1396 0 
-130.894 -101.033 0 
-89.3873 -42.0053 0 
-124.009 -67.7106 0 
-77.7076 -93.8023 0 
-129.655 -92.9012 0 
-95.7261 -100.198 0 
-95.7405 -84.7121 0 
-109.377 -72.788 0 
-113.987 -62.0106 0 
-143.862 -46.5779 0 
-128.264 -85.1039 0 
-127.649 -60.0371 0 
-102.3 -104.066 0 
-106.204 -40.9713 0 
-110.49 -77.9897 0 
-113.548 -99.1083 0 
-119.71 -88.0122 0 
-113.736 -71.4779 0 
-103.495 -62.4467 0 
-101.198 -57.9675 0 
-84.094 -70.5155 0 
-120.858 -66.6057 0 
-159.695 -6.14338 0 
-156.39 1.03997 0 
-152.06 -13.3246 0 
-152.031 -13.0708 0 
-109.59 -68.3782 0 
-121.985 -66.4803 0 
-92.9364 -69.5571 0 
-66.9203 -83.0537 0 
-93.319 -52.1511 0 
-155.525 -49.1238 0 
-130.347 -49.0691 0 
-93.8683 -66.7721 0 
-109.078 -79.8987 0 
-101.651 -68.0619 0 
-82.1909 -82.5049 0 
-95.2874 -54.0235 0 
-95.5005 -110.791 0 
-113.392 -68.3661 0 
-120.205 -100.3 0 
-107.85 -61.9521 0 
-116.198 -86.9955 0 
-82.6081 -92.2691 0 
-73.8467 -70.714 0 
-78.9829 -79.1663 0 
-120.45 -64.0235 0 
-122.76 -48.0441 0 
-125.986 -44.866 0 
-86.997 -80.1388 0 
-96.3677 -66.6335 0 
-139.725 -66.8224 0 
-85.7212 -69.4052 0 
-116.842 -56.9945 0 
-129.72 -60.2374 0 
-105.196 -69.838 0 
-134.407 -58.9952 0 
-95.4347 -56.813 0 
-81.8 -52.9117 0 
-92.5378 -74.8066 0 
-123.462 -59.5389 0 
-149.967 -87.634 0 
-131.769 -92.6379 0 
-105.83 -50.9002 0 
-65.3597 -76.1155 0 
-95.7296 -73.2118 0 
-80.4269 -76.2124 0 
-132.881 -73.7304 0 
-119.962 -66.3684 0 
-110.507 -51.9197 0 
-107.95 -79.595 0 
-68.7753 -62.8055 0 
-91.9228 -58.9871 0 
-92.0894 -75.0944 0 
-77.037 -73.7033 0 
-86.8817 -74.4061 0 
-116.095 -68.7374 0 
-152.571 -42.167 0 
-85.8617 -65.6514 0 
-105.624 -49.8752 0 
-122.455 -55.8664 0 
-90.8637 -84.0281 0 
-107.722 -32.5929 0 
-103.349 -70.9052 0 
-152.201 -53.6915 0 
-110.711 -53.6705 0 
-122.608 -29.47 0 
-86.7131 -68.5747 0 
-138.786 -43.8728 0 
-104.149 -81.7954 0 
-92.6219 -76.815 0 
-140.124 -28.1815 0 