<VTKFile type="UnstructuredGrid" version="0.1" byte_order="BigEndian">
  <UnstructuredGrid>
        <Piece NumberOfPoints="8000" NumberOfCells="0" Time= "0.02">      <Points>
        <DataArray name="Position" type="Float32"  NumberOfComponents= "3"  format="ascii">

114.852 14.8911 0 
114.818 16.3959 0 
114.837 17.3724 0 
114.863 16.7316 0 
114.835 15.6741 0 
114.816 15.5096 0 
114.883 16.8426 0 
114.831 15.5553 0 
114.875 15.6209 0 
114.819 16.5122 0 
114.901 15.1361 0 
114.881 17.0078 0 
114.871 17.3406 0 
114.898 17.203 0 
114.926 15.1063 0 
114.818 15.3392 0 
114.91 16.3608 0 
114.842 16.9218 0 
114.896 16.242 0 
114.89 17.22 0 
114.887 16.1532 0 
114.82 16.4433 0 
114.843 16.5644 0 
114.887 16.5576 0 
114.875 15.3159 0 
114.906 16.548 0 
114.864 15.679 0 
114.895 17.5746 0 
114.834 17.7275 0 
114.888 17.5445 0 
114.861 17.6174 0 
114.874 19.1054 0 
114.893 18.0898 0 
114.886 19.1404 0 
116.671 14.8341 0 
116.773 14.8066 0 
114.996 14.8977 0 
115.716 14.8033 0 
116.548 14.8801 0 
116.858 14.8595 0 
116 14.911 0 
117.375 14.8609 0 
115.697 14.8615 0 
116.685 14.8925 0 
117.147 14.8793 0 
115.731 14.851 0 
115.656 14.8909 0 
115.951 14.8875 0 
116.533 14.8602 0 
117.226 14.8928 0 
115.329 14.8261 0 
117.179 14.9003 0 
117.006 14.9058 0 
116.635 14.8355 0 
117.195 16.3357 0 
116.147 16.7072 0 
116.405 16.555 0 
116.635 15.9673 0 
115.076 16.5455 0 
116.631 15.5369 0 
116.547 14.9132 0 
115.849 16.2155 0 
116.274 16.2713 0 
116.149 17.0121 0 
117.044 15.7181 0 
115.984 15.4145 0 
116.074 16.7937 0 
116.714 16.0862 0 
116.506 15.3631 0 
115.109 16.6607 0 
115.289 16.502 0 
116.093 15.0125 0 
117.376 16.3691 0 
116.612 17.1382 0 
116.398 16.5437 0 
116.556 17.0371 0 
116.576 15.3273 0 
117.357 15.5378 0 
117.2 15.798 0 
116.34 15.6256 0 
116.321 16.3815 0 
116.306 16.5678 0 
116.227 15.0761 0 
116.692 15.5891 0 
117.044 15.209 0 
116.222 16.5196 0 
116.918 15.5607 0 
115.075 16.7844 0 
116.644 16.9553 0 
115.224 16.5814 0 
115.84 16.6138 0 
115.021 17.0731 0 
116.407 16.7258 0 
116.656 15.9656 0 
117.341 15.8705 0 
116.501 15.4018 0 
116.587 17.4122 0 
117.236 16.3678 0 
117.167 17.1964 0 
115.953 15.3018 0 
116.161 16.508 0 
116.027 15.6601 0 
116.797 15.9962 0 
116.42 17.1124 0 
116.615 14.9667 0 
116.824 16.4309 0 
116.576 15.8473 0 
116.025 15.0207 0 
116.106 16.571 0 
115.942 15.5643 0 
117.33 16.3649 0 
116.551 16.0764 0 
115.005 15.275 0 
116.227 16.64 0 
115.897 15.4055 0 
115.207 16.4061 0 
115.027 16.7645 0 
116.592 17.3356 0 
116.147 17.2709 0 
117.021 15.3397 0 
116.583 16.9434 0 
116.746 16.7593 0 
116.03 16.5771 0 
115.544 16.605 0 
115.075 15.4019 0 
117.335 15.5242 0 
116.568 15.8287 0 
115.076 16.8294 0 
115.055 17.3708 0 
117.237 17.3513 0 
116.954 16.8675 0 
117.124 15.547 0 
116.543 15.3209 0 
116.101 16.5936 0 
114.988 16.4636 0 
116.648 15.9226 0 
116.797 16.275 0 
117.297 15.5049 0 
116.512 15.5544 0 
116.386 16.5386 0 
116.544 15.7509 0 
115.005 15.5718 0 
116.225 16.4571 0 
115.914 14.9135 0 
116.628 15.0613 0 
116.176 16.9097 0 
116.227 16.6068 0 
116.269 17.1883 0 
117.281 15.5383 0 
116.664 16.0355 0 
116.283 16.685 0 
116.801 16.1347 0 
117.104 15.0266 0 
116.197 16.9049 0 
117.025 15.6 0 
115.841 16.9656 0 
117.019 16.6967 0 
116.063 17.215 0 
116.442 15.2983 0 
117.32 15.0367 0 
114.993 15.1093 0 
117.324 16.4173 0 
115.99 16.6862 0 
115.839 16.2036 0 
117.126 16.4212 0 
115.016 15.6447 0 
115.596 14.9215 0 
115.899 16.634 0 
115.431 14.9649 0 
116.364 15.1806 0 
117.054 17.2189 0 
116.062 16.2324 0 
115.905 16.5271 0 
117.014 16.7267 0 
117.124 15.3239 0 
117.173 15.3346 0 
116.592 15.8832 0 
116.635 15.9727 0 
114.951 15.3487 0 
115.759 14.9614 0 
116.589 15.8266 0 
116.229 16.4055 0 
117.243 15.5304 0 
116.555 15.0693 0 
116.213 16.2013 0 
115.881 16.8917 0 
115.228 15.2406 0 
116.577 16.0259 0 
116.622 15.7983 0 
117.326 15.0442 0 
115.319 15.6385 0 
116.33 16.6099 0 
116.526 16.9241 0 
116.92 16.5283 0 
116.765 16.9891 0 
116.654 16.2998 0 
116.873 16.8422 0 
116.202 17.1089 0 
117.039 15.1021 0 
116.137 16.2374 0 
117.073 15.0955 0 
116.509 15.0353 0 
115.957 15.3018 0 
116.949 15.8266 0 
116.081 16.68 0 
115.84 16.765 0 
116.137 15.3763 0 
116.961 15.5061 0 
117.352 16.3449 0 
114.995 16.9767 0 
116.321 16.3763 0 
116.76 15.8226 0 
116.073 17.1051 0 
117.108 17.1494 0 
116.395 17.224 0 
116.067 15.1821 0 
116.189 17.1189 0 
116.998 17.0852 0 
117.118 15.7097 0 
115.31 16.5873 0 
116.733 15.8295 0 
116.451 17.2612 0 
116.335 16.3814 0 
117.056 17.1139 0 
117.053 14.9667 0 
115.7 17.1543 0 
116.813 16.1493 0 
115.126 16.6265 0 
116.6 16.0966 0 
117.216 16.7775 0 
117.272 15.4739 0 
115.532 16.9695 0 
116.972 17.011 0 
116.943 16.4356 0 
116.049 16.5677 0 
116.471 16.1542 0 
115.014 14.9659 0 
116.97 15.7505 0 
116.561 16.7712 0 
115.863 15.2438 0 
117.263 16.328 0 
115.83 15.1722 0 
115.844 16.7017 0 
115.703 16.9873 0 
116.709 17.1045 0 
117.06 15.9804 0 
116.604 15.9527 0 
116.026 16.5801 0 
117.177 15.1596 0 
116.892 17.3645 0 
115.161 16.4807 0 
115.695 17.2749 0 
115.827 16.8679 0 
116.095 16.5413 0 
117.024 16.5891 0 
115.988 16.9236 0 
116.55 17.2484 0 
116.735 15.9224 0 
115.974 15.4839 0 
116.532 16.0742 0 
116.546 15.1484 0 
116.383 16.3982 0 
116.14 15.4721 0 
116.842 16.4934 0 
117.387 17.1128 0 
115.925 17.2609 0 
115.743 16.6699 0 
116.895 16.9596 0 
116.658 16.7829 0 
115.238 15.6049 0 
116.452 17.3637 0 
116.739 15.3053 0 
115.356 16.5957 0 
117.242 17.0513 0 
116.518 14.9685 0 
116.103 17.0715 0 
114.976 16.2977 0 
116.624 16.1424 0 
115.612 16.7956 0 
116.496 16.9311 0 
117.038 17.1899 0 
115.08 16.9294 0 
116.399 16.7262 0 
115.873 16.6492 0 
116.297 16.4083 0 
117.268 16.3619 0 
117.043 16.4517 0 
115.002 15.7305 0 
116.567 15.7854 0 
116.122 15.3151 0 
116.199 17.1921 0 
116.192 15.5879 0 
116.561 17.1152 0 
115.143 14.9895 0 
116.163 16.9283 0 
116.748 16.2003 0 
116.991 16.4379 0 
115.364 16.5183 0 
116.296 16.3954 0 
116.556 16.9667 0 
117.126 16.9205 0 
115.216 16.8142 0 
117.067 16.5094 0 
117.187 15.3128 0 
115.652 15.0165 0 
116.694 16.2546 0 
116.584 15.29 0 
116.902 16.7466 0 
115.967 16.725 0 
114.923 16.2929 0 
116.604 15.2817 0 
114.957 16.595 0 
117.171 15.2704 0 
115.27 15.433 0 
116.119 17.0909 0 
117.182 15.3958 0 
117.244 15.4483 0 
116.534 15.9003 0 
115.344 16.5935 0 
116.115 17.1936 0 
116.592 17.2658 0 
115.954 16.6748 0 
115.931 15.1972 0 
117.133 16.4306 0 
116.262 16.6048 0 
114.943 15.1027 0 
116.653 15.4782 0 
115.129 15.7102 0 
116.854 16.5308 0 
116.55 16.2664 0 
117.039 15.2507 0 
116.161 17.1412 0 
116.966 16.5865 0 
115.789 16.7053 0 
116.855 16.9681 0 
116.549 16.251 0 
116.323 15.4536 0 
115.002 16.4851 0 
116.502 15.4196 0 
116.14 15.4736 0 
115.973 15.7356 0 
116.916 15.2363 0 
116.671 16.828 0 
116.753 16.4322 0 
115.981 15.096 0 
116.306 16.1959 0 
115.974 16.9728 0 
116.516 15.3305 0 
116.37 15.191 0 
115.732 16.9527 0 
115.025 15.6654 0 
116.087 16.6607 0 
116.953 16.4016 0 
117.341 17.0307 0 
115.83 16.5625 0 
116.945 14.9935 0 
116.599 16.3622 0 
116.153 15.3802 0 
115.168 16.9916 0 
117.349 16.3144 0 
116.147 16.4194 0 
116.186 17.0885 0 
116.606 16.8607 0 
116.62 16.0647 0 
115.877 15.327 0 
116.402 16.5549 0 
116.14 16.4889 0 
115.685 16.9514 0 
117.116 16.9446 0 
116.623 15.1056 0 
116.225 16.6335 0 
116.823 16.507 0 
115.917 15.6059 0 
117.239 15.2969 0 
117.225 16.3649 0 
115.515 16.5873 0 
116.635 15.8617 0 
115.938 14.9452 0 
116.203 15.7077 0 
116.617 16.0977 0 
116.903 16.7241 0 
115.916 16.8156 0 
115.682 17.1605 0 
114.933 16.2382 0 
117.318 16.1991 0 
116.48 16.9389 0 
116.312 15.269 0 
117.2 15.6401 0 
116.511 15.7441 0 
116.603 16.0499 0 
116.745 15.9055 0 
115.968 16.7281 0 
116.334 16.2041 0 
116.62 16.3054 0 
116.976 17.1232 0 
116.561 16.9653 0 
117.206 15.7217 0 
116.833 16.5391 0 
115.01 16.3602 0 
116.032 17.3768 0 
116.619 16.9274 0 
116.685 16.9342 0 
116.527 15.0167 0 
116.382 16.3505 0 
116.283 16.1949 0 
116.594 15.2991 0 
114.918 17.333 0 
117.133 14.9164 0 
116.748 15.6883 0 
115.331 15.6395 0 
116.299 16.3981 0 
116.692 16.178 0 
116.193 16.5448 0 
116.461 17.2853 0 
115.282 15.6589 0 
116.959 16.4459 0 
116.785 17.3403 0 
116.201 17.0773 0 
115.845 16.9271 0 
116.369 16.3099 0 
116.797 16.7194 0 
116.985 16.493 0 
117.262 15.7848 0 
116.007 16.9913 0 
115.092 16.3618 0 
116.121 16.5191 0 
116.653 17.0288 0 
116.396 15.1227 0 
116.194 15.0829 0 
116.348 16.6241 0 
116.542 14.9462 0 
117.097 15.7937 0 
115.241 15.5851 0 
117.146 17.1379 0 
116.117 15.3531 0 
115.461 16.6883 0 
116.216 16.8399 0 
115.322 16.2589 0 
116.514 15.0514 0 
117.409 16.5831 0 
116.033 17.0153 0 
116.984 15.2016 0 
115.955 17.1155 0 
115.168 15.2583 0 
117.086 17.2372 0 
115.368 15.4961 0 
116.825 15.7234 0 
116.636 16.8407 0 
116.513 14.9711 0 
116.06 17.0317 0 
116.939 15.5558 0 
115.95 17.0431 0 
117.129 16.7364 0 
116.59 15.7292 0 
116.553 16.3485 0 
115.582 17.2616 0 
116.406 16.2854 0 
115.662 16.6589 0 
116.635 15.0122 0 
116.731 16.2853 0 
116.47 16.4354 0 
116.608 15.5179 0 
117.195 15.4729 0 
116.822 17.106 0 
115.01 15.0904 0 
117.234 16.6374 0 
116.276 17.2304 0 
117.34 16.71 0 
116.249 16.5059 0 
114.977 15.7122 0 
116.495 15.711 0 
116.797 16.9428 0 
115.302 15.4324 0 
115.847 17.1455 0 
116.134 16.9022 0 
116.742 15.8602 0 
116.975 16.492 0 
116.492 16.2115 0 
114.992 16.3239 0 
116.063 15.7262 0 
115.699 16.8368 0 
116.591 17.3638 0 
116.475 16.4129 0 
115.34 15.0722 0 
117.06 17.0552 0 
116.568 17.0133 0 
116.098 17.2356 0 
117.126 15.2159 0 
117.332 15.8951 0 
116.158 16.526 0 
116.042 16.817 0 
116.246 16.1764 0 
115.095 15.7244 0 
115.855 15.4933 0 
116.844 15.4594 0 
116.574 16.8453 0 
115.892 16.9943 0 
116.507 16.2735 0 
116.852 17.1392 0 
116.622 15.0394 0 
114.99 15.7331 0 
115.765 16.8979 0 
115.059 17.0675 0 
116.558 16.0794 0 
115.871 16.2134 0 
117.016 15.5931 0 
116.521 15.5973 0 
115.294 15.7291 0 
117.053 15.7924 0 
116.148 17.2098 0 
116.66 15.4819 0 
116.625 15.4166 0 
115.958 17.2266 0 
116.851 15.5333 0 
116.875 16.4422 0 
115.114 16.6343 0 
115.573 17.0078 0 
[...]
      <PointData Vectors="vector">
        <DataArray type="Float32" Name="Velocity" NumberOfComponents="3" format="ascii">

-11.9646 -19.994 0 
-19.9735 -19.9747 0 
-19.9896 6.0397 0 
-19.9839 -19.9909 0 
-19.6691 -5.56325 0 
-20 -20 0 
-20 -20 0 
-20 15.0734 0 
-19.9786 -15.5669 0 
-20 -20 0 
-20 -20 0 
-20 -20 0 
-20 -20 0 
-19.8135 -19.6617 0 
-17.4925 -20 0 
-19.9921 -19.9405 0 
-19.9891 -19.9364 0 
-19.9812 -19.9806 0 
-19.9842 -19.9533 0 
-14.0258 -20 0 
-20 -20 0 
-20 15.5545 0 
-20 15.0721 0 
-20 15.2128 0 
-19.4029 -2.60114 0 
-20 -20 0 
-19.9855 -16.6264 0 
-20 15.456 0 
-19.9771 -19.9753 0 
-20 15.2114 0 
-19.9844 -19.9621 0 
-20 -17.1268 0 
-20 15.5419 0 
-20 15.3668 0 
-19.9843 5.6298 0 
-19.52 -19.2898 0 
-20 -16.4801 0 
-19.979 5.47056 0 
-18.1748 -20 0 
-19.9873 -18.7991 0 
-19.4862 -2.77317 0 
-19.4091 -5.22673 0 
-19.9803 -19.9604 0 
-20 -20 0 
-19.9795 5.75886 0 
-20 -20 0 
-19.9589 -19.9823 0 
-19.9356 15.2358 0 
-19.9583 -19.9875 0 
-19.9635 -19.9835 0 
-19.9256 -19.9819 0 
-19.9619 -19.9852 0 
-19.9573 19.9753 0 
-19.9428 15.425 0 
-19.9397 15.0012 0 
-19.9415 15.2389 0 
-19.9237 -14.999 0 
-19.9502 19.9635 0 
-19.9325 -19.9751 0 
-19.9432 19.9638 0 
-19.9597 19.9761 0 
-19.9584 19.5247 0 
10.253 -19.9573 0 
-4.95016 -19.9318 0 
-19.7772 -19.8932 0 
15.6276 -19.9277 0 
-19.9749 -19.9286 0 
18.198 -20 0 
1.09128 -19.8806 0 
-13.6827 -20 0 
-19.7621 -19.8929 0 
2.53774 -20 0 
-9.72579 -20 0 
0.776967 -20 0 
-16.4768 -20 0 
-19.9014 -19.9504 0 
-19.9692 -19.9446 0 
-7.31273 -20 0 
9.74403 -20 0 
-19.7824 -19.9001 0 
-19.8905 -19.9402 0 
-9.32472 -19.5916 0 
-11.4059 -20 0 
-17.0859 -20 0 
-6.50776 -20 0 
-17.1902 -20 0 
-19.8199 -19.8649 0 
-6.53192 -20 0 
-19.8866 -19.939 0 
-4.05033 -19.9627 0 
3.59445 -19.7291 0 
-19.915 -19.9386 0 
-8.43534 -19.5939 0 
15.2136 -20 0 
-19.8921 -19.9362 0 
-19.9316 -19.9218 0 
19.0464 -19.9313 0 
-19.9761 -19.9295 0 
-19.979 -19.9406 0 
-19.9884 -4.9984 0 
-10.1415 -19.8034 0 
7.54638 7.12837 0 
-19.8829 -4.95704 0 
-19.8728 15.3634 0 
4.9376 -18.4326 0 
20 20 0 
20 19.9827 0 
-15.4652 -19.9034 0 
-19.991 -19.9693 0 
20 -20 0 
-17.2127 -19.7572 0 
-19.8468 -4.99743 0 
-5.68889 -15.0912 0 
-16.178 -6.33427 0 
-19.8125 18.6286 0 
-1.07552 -20 0 
-19.9671 -4.99466 0 
-19.4359 -11.6131 0 
8.38736 8.15899 0 
-5.6647 -19.7717 0 
17.2121 -19.4712 0 
-19.9982 -10.1971 0 
-19.999 16.2368 0 
-19.9878 -19.9409 0 
20 -19.9949 0 
-2.48323 -4.90334 0 
1.21109 -2.93241 0 
11.3834 -20 0 
-19.8229 15.4972 0 
-19.8515 -19.7792 0 
0.212979 -1.58781 0 
-19.887 -19.9701 0 
-17.3141 -19.317 0 
-18.0308 -10.0177 0 
-12.7991 -17.3131 0 
-4.49709 -19.7019 0 
-19.9877 -19.9148 0 
-14.7466 -19.8452 0 
6.9027 -15.5118 0 
-19.988 -19.9233 0 
-7.06525 -14.4039 0 
18.5487 -19.8612 0 
-19.9839 -4.99786 0 
-19.9985 -19.9935 0 
20 -20 0 
17.9247 19.7007 0 
20 -20 0 
-19.9606 -7.98362 0 
-19.5973 -19.277 0 
-19.9984 15.2226 0 
-17.7485 6.70832 0 
20 -20 0 
-15.7708 -19.1883 0 
20 -20 0 
-19.9742 -4.99606 0 
-15.6155 -9.11857 0 
-20 -20 0 
7.83958 2.42646 0 
20 -20 0 
-20 20 0 
-15.0324 -16.3118 0 
-16.8549 -17.156 0 
9.73747 -20 0 
-19.8843 -19.8805 0 
-19.8966 -2.20565 0 
-19.9448 -10.0097 0 
-19.9941 -19.9427 0 
16.677 16.8107 0 
-11.3068 -5.38647 0 
-20 -20 0 
-19.9979 -10.8251 0 
-17.2851 -8.58967 0 
-19.9914 -19.9612 0 
-19.352 -19.9693 0 
-19.9976 -19.986 0 
-19.9181 -19.8827 0 
-19.997 -19.9842 0 
-1.6577 -17.6145 0 
15.9775 14.6255 0 
7.27773 -15.3298 0 
-19.9968 1.73794 0 
-19.9983 -8.56955 0 
-14.9962 -1.44076 0 
15.0505 14.9793 0 
-15.8934 -9.80598 0 
-20 -20 0 
-0.429584 -4.56425 0 
11.4316 -19.7641 0 
-6.80075 -19.7238 0 
15.1616 14.241 0 
-3.50448 -20 0 
-19.9991 9.81195 0 
-19.8826 13.8865 0 
-11.9946 -19.9096 0 
-19.9667 -2.32563 0 
-19.8706 -19.9316 0 
-19.7335 -19.7062 0 
-19.9978 -16.8289 0 
-19.9872 -19.9854 0 
20 -19.9 0 
-19.9378 -7.90515 0 
18.4579 -20 0 
20 -19.9415 0 
-19.9528 -19.926 0 
-19.9701 -4.99605 0 
5.87719 1.36891 0 
20 20 0 
-19.9921 10.8154 0 
-20 -20 0 
-4.47607 -19.746 0 
20 -20 0 
-19.9983 -19.9935 0 
20 20 0 
19.9658 19.2871 0 
-19.9057 -8.60615 0 
-19.9178 -18.9457 0 
-19.9408 -16.8707 0 
-18.9642 13.5285 0 
-19.8971 7.15095 0 
15.7887 -6.28802 0 
-18.2728 -19.9962 0 
19.9965 20 0 
-19.9974 -19.6276 0 
-16.1368 -16.8599 0 
20 20 0 
5.18942 -19.8761 0 
-20 -20 0 
18.0982 5.29765 0 
-19.8896 15.186 0 
-19.2753 9.66903 0 
-19.9573 -19.9303 0 
-20 -20 0 
-13.1684 -19.8716 0 
-19.8269 -7.21224 0 
-19.9964 13.5561 0 
-19.9012 -9.99235 0 
-17.8144 -18.5763 0 
-19.911 -9.95992 0 
-1.89288 -20 0 
-19.8753 -19.9197 0 
20 20 0 
-19.8634 -19.9112 0 
-6.09378 -19.4173 0 
20 -20 0 
-19.9825 -19.9541 0 
-9.48309 -19.8112 0 
-4.23635 -19.8647 0 
20 -20 0 
-19.8878 -19.9708 0 
-19.9731 -4.99555 0 
-10.4755 -11.6054 0 
-19.8517 13.0615 0 
19.8907 -20 0 
-19.9988 -19.9954 0 
-19.9965 -19.9698 0 
-19.3878 -19.3774 0 
20 -20 0 
-0.290006 -20 0 
-19.9276 -19.921 0 
-19.9917 -19.9668 0 
-19.6657 15.4969 0 
-19.8685 15.2933 0 
-19.935 -16.6064 0 
-0.504079 -2.68727 0 
-19.999 -19.9966 0 
20 -19.8513 0 
-19.9683 -1.40568 0 
-18.666 6.0917 0 
6.24296 -17.5736 0 
-19.8529 -17.7393 0 
-19.9984 -12.4265 0 
20 -19.9321 0 
-19.8475 -19.8526 0 
-19.9972 19.6534 0 
16.8621 17.703 0 
20 19.8849 0 
-19.9889 -19.9681 0 
-5.41381 -19.3614 0 
10.7258 -20 0 
20 -20 0 
-19.984 -4.99755 0 
20 -20 0 
4.5508 0.745627 0 
20 -19.9099 0 
-19.9072 -19.9444 0 
-19.9914 -19.9848 0 
-19.5676 15.7762 0 
16.6034 16.403 0 
-19.8895 -18.1615 0 
-19.9961 -19.9894 0 
-20 15.9104 0 
20 -19.9108 0 
3.33352 -19.8885 0 
6.24581 -9.07737 0 
-19.9903 -4.99947 0 
-1.25236 -19.8078 0 
-1.85531 -19.8016 0 
-19.8595 -6.5382 0 
20 -20 0 
-7.21855 -13.1059 0 
1.41536 -18.5951 0 
16.8858 16.9778 0 
20 -20 0 
-19.998 19.6209 0 
-19.9983 -19.9953 0 
18.9357 -20 0 
2.27827 -2.47049 0 
-19.8645 -19.9099 0 
-16.3665 -10.025 0 
-20 -20 0 
5.56047 -20 0 
-19.7991 15.9879 0 
-13.0734 -3.25832 0 
-19.9991 -19.9971 0 
8.05279 -20 0 
16.5235 -11.8981 0 
-1.63167 -19.9002 0 
-19.7626 -14.864 0 
-19.9985 -19.9947 0 
-19.9928 -19.9516 0 
-17.0307 -19.6461 0 
-15.2788 -19.7865 0 
-1.72364 -4.25621 0 
-19.9858 6.60553 0 
-19.995 18.0022 0 
-20 -17.2117 0 
-17.1212 8.93632 0 
20 -20 0 
3.81285 -20 0 
20 -20 0 
3.47426 -19.9948 0 
-17.049 -19.9961 0 
-19.2544 -19.7022 0 
-19.9185 -5.03883 0 
-19.9946 -4.99953 0 
-19.7893 20 0 
-4.98251 -7.69484 0 
-19.8769 -4.28227 0 
-19.8828 -19.86 0 
-17.6809 -19.9663 0 
-19.9899 -4.99925 0 
-19.9367 -15.4464 0 
-3.53423 -20 0 
-19.9561 -15.989 0 
-1.20402 -18.2301 0 
-19.9324 -9.74236 0 
-19.9973 -19.9924 0 
-19.9989 11.9526 0 
-15.6146 -19.7926 0 
-19.8179 -15.6337 0 
-19.2612 -7.40079 0 
-19.9075 -16.8321 0 
-20 -20 0 
11.3794 -20 0 
-19.9813 -17.9842 0 
-19.9987 -11.455 0 
-3.20588 -13.3949 0 
-6.97953 -13.143 0 
18.6441 -20 0 
-19.9346 -14.5074 0 
-19.7002 -20 0 
-19.994 -19.9905 0 
10.4572 4.60748 0 
-19.9982 -19.9993 0 
20 -20 0 
-19.9925 16.7973 0 
2.88776 -1.7017 0 
-19.8299 3.79691 0 
-20 -20 0 
-19.9976 18.3987 0 
-9.0124 -16.6497 0 
-19.8519 -19.7825 0 
8.31997 -20 0 
-19.993 -4.99963 0 
-4.7639 -19.8918 0 
-19.8783 -19.9223 0 
19.9325 15.3306 0 
20 -20 0 
-20 15.0667 0 
-7.09495 -14.5233 0 
20 -20 0 
20 -20 0 
-19.8265 -17.3776 0 
-17.5722 -10.0257 0 
-19.969 -16.5411 0 
20 -20 0 
20 19.9778 0 
15.7012 -19.8721 0 
-1.8545 -16.854 0 
20 -20 0 
20 -19.9213 0 
-20 -20 0 
10.5586 3.74645 0 
-19.996 -4.99962 0 
-19.9989 -19.9971 0 
1.63884 -16.5653 0 
-15.3306 -16.1072 0 
20 -20 0 
-16.9939 -19.9307 0 
-19.9764 -4.99583 0 
19.9938 20 0 
-12.1448 -20 0 
-17.4541 -9.04099 0 
5.02374 -17.3585 0 
20 -20 0 
-18.6791 -17.6463 0 
19.9795 19.8998 0 
20 -19.9269 0 
-19.8981 -19.8818 0 
4.98961 -19.3446 0 
-9.08315 -19.9103 0 
-19.9978 5.45242 0 
20 -20 0 
-19.946 -7.3243 0 
-19.9883 6.01752 0 
-1.22236 -12.1813 0 
10.5051 -6.60672 0 
20 -20 0 
-18.5528 -14.5661 0 
-19.9739 -9.76343 0 
-3.37461 -19.8406 0 
20 -19.8607 0 
-19.9848 -19.4054 0 
-14.96 -18.2211 0 
20 -20 0 
-19.995 -19.9756 0 
3.73451 -19.8531 0 
-19.9989 2.16216 0 
16.7054 -3.07421 0 
-19.8547 2.65055 0 
-15.305 -19.7915 0 
20 19.9741 0 
-16.1053 -19.2144 0 
-19.9495 -19.9375 0 
-19.8817 -4.21175 0 
-19.992 -19.96 0 
-19.9976 10.3582 0 
-20 15.4826 0 
-18.3447 -20 0 
6.31991 -19.3046 0 
-19.9503 -10.0228 0 
-19.9778 -19.9459 0 
1.16207 -19.666 0 
18.8453 18.6775 0 
20 19.9807 0 
-18.3462 -7.15531 0 
-19.9978 -16.6951 0 
-19.8668 14.547 0 
-20 -20 0 
-3.27513 -6.06294 0 
-19.8481 -8.91249 0 
-1.55101 -7.82584 0 
-19.0843 -17.2307 0 
-20 -20 0 
-19.9953 -4.99961 0 
-19.7915 -19.3813 0 
-17.9544 -20 0 
20 -19.9168 0 
20 19.9381 0 
-19.9585 -9.99258 0 
-20 -20 0 
-19.9955 14.5468 0 
-19.9899 -19.941 0 
8.68733 -19.8658 0 
-20 16.8834 0 
18.2035 19.5064 0 
-19.9497 -9.99974 0 
20 -20 0 
20 -20 0 
-12.4463 -19.8113 0 
-19.9862 -19.949 0 
-20 -20 0 
-19.9989 -19.9955 0 
20 -20 0 
-4.77535 -19.8844 0 
-18.7792 -19.8096 0 
-19.994 -19.931 0 
-20 20 0 
20 -20 0 
-19.9128 -14.6418 0 
20 -19.8647 0 
-19.8778 -19.9151 0 
19.9803 -19.9277 0 
-20 -20 0 
-19.9982 -19.9925 0 
-20 -20 0 
-19.8687 -14.1391 0 
-16.1087 -10.0225 0 
16.4601 -19.8919 0 
-19.901 -19.9723 0 
20 -19.858 0 
-19.7957 -16.7692 0 
-19.9157 -14.8562 0 
-18.8456 11.1917 0 
-14.7945 -12.4097 0 
20 -19.9043 0 
20 19.9163 0 
-3.32837 -3.10712 0 
10.478 -19.7293 0 
-19.9648 -12.3181 0 
20 14.5627 0 
11.4061 -19.3763 0 
-19.9981 -19.278 0 
-19.8523 -19.9045 0 
-20 -20 0 
-19.9008 -14.7226 0 
-19.9966 -19.992 0 
-3.57844 -20 0 
-19.8252 -16.9847 0 
16.2873 16.9237 0 
-13.2517 -9.92858 0 
-19.8779 -9.97824 0 
-20 -20 0 
20 -19.8575 0 
-19.0196 -19.7028 0 
-19.8592 -7.28619 0 
-19.9942 -4.99958 0 
0.0659905 -15.0865 0 
20 -20 0 
2.05867 -19.9412 0 
-4.2453 -18.4145 0 
20 15.5043 0 
-20 -20 0 
-19.9925 -19.9867 0 
-19.998 -15.4553 0 
-4.69246 -19.658 0 
16.8086 -20 0 
-19.8731 -18.9173 0 
-19.987 -19.9311 0 
17.0909 18.538 0 
-15.0077 -19.7588 0 
20 20 0 
-20 -20 0 
20 -20 0 
-19.7893 12.6667 0 
-19.9985 -1.27241 0 
-19.7929 -2.23409 0 
20 -19.8778 0 
20 16.1023 0 
-19.8272 -19.8655 0 
3.75158 -19.4383 0 
20 -19.938 0 
-19.9868 -19.9129 0 
4.674 -15.8134 0 
20 20 0 
-19.9821 -19.9862 0 
-15.1736 -0.309697 0 
-20 -20 0 
-19.9859 -19.9528 0 
17.6671 -20 0 
-19.8281 4.30415 0 
4.39048 -18.47 0 
19.2548 -20 0 
-19.8089 9.08716 0 
-19.9957 19.8526 0 
-19.4966 17.1972 0 
20 -19.9148 0 
11.896 -20 0 
3.98325 -19.9085 0 
-15.8466 -12.9257 0 
-19.9949 -19.984 0 
-18.2694 -2.84579 0 
-19.9991 16.3204 0 
-19.9981 -19.9902 0 
-0.442687 -2.967 0 
20 -19.8938 0 
20 -20 0 
20 -20 0 
15.7784 -19.9847 0 
-19.8476 -19.9014 0 
2.16407 -0.633361 0 
-17.346 -4.02274 0 
20 -20 0 
19.9684 -19.9289 0 
-16.2388 0.0984799 0 
-19.7998 2.98377 0 
20 -19.9389 0 
-11.0144 -10.8081 0 
-19.9193 -4.76349 0 
20 -20 0 
-20 16.5753 0 
-19.9625 -4.94001 0 
-4.80822 -19.9796 0 
-19.983 -19.9547 0 
15.3547 13.9347 0 
-19.9365 -10.0023 0 
8.40662 -6.74048 0 
20 17.6976 0 
-14.74 -16.3545 0 
20 20 0 
-19.819 -15.4806 0 
-19.9897 17.2351 0 
20 20 0 
20 -19.9947 0 
-0.953296 -18.3808 0 
-19.9986 -19.9937 0 
2.46193 -3.51585 0 
-8.47735 -18.7826 0 
-20 20 0 
20 -19.9063 0 
-20 -20 0 
1.97263 -3.51269 0 
16.0143 14.7535 0 
-19.7306 -19.9627 0 
-15.1496 -6.41613 0 
20 20 0 
20 18.1839 0 
-20 -20 0 
-18.0461 -19.9964 0 
-19.9975 -19.9895 0 
20 -19.988 0 
2.77647 -17.7909 0 
-19.9957 -4.99951 0 
-10.4257 -19.8145 0 
-15.7769 -18.9787 0 
8.54599 -19.9491 0 
-16.2108 -20 0 
-20 -20 0 
-16.4238 15.2967 0 
-19.7203 15.4988 0 
10.5985 -20 0 
-16.5861 -10.999 0 
-0.717385 19.4193 0 
15.0041 19.9658 0 
-19.8563 16.384 0 
5.36898 19.9916 0 
9.2494 19.991 0 
-20 -20 0 
-11.0726 -19.9992 0 
-14.9341 19.9674 0 
-19.8632 2.33593 0 
-19.9355 3.9054 0 
-3.39537 -15.0014 0 
-15.4135 -20 0 
15.8685 19.6393 0 
-20 20 0 
14.8999 19.9802 0 
-19.918 -2.68982 0 
-19.9746 14.9912 0 
-19.989 15 0 
-19.9985 0.539112 0 
-20 17.9133 0 
-20 16.534 0 
-19.8552 -0.448301 0 
-20 20 0 
14.6341 19.9729 0 
3.01441 19.2931 0 
20 -19.9053 0 
-12.3557 -20 0 
-20 20 0 
-3.05411 -19.9999 0 
-18.3968 -20 0 
-10.9099 -19.8439 0 
-20 -20 0 
-19.9994 -9.98553 0 
-19.9108 11.5876 0 
12.839 15 0 
18.1043 -20 0 
-10.9111 15 0 
14.1915 19.4345 0 
-20 15.0273 0 
0.580945 -19.867 0 
-19.9887 19.9875 0 
-19.7642 -19.9967 0 
-19.8931 13.9729 0 
-20 15.084 0 
19.969 -19.7959 0 
14.3417 -15.5428 0 
-11.4021 -19.9981 0 
-19.7163 17.502 0 
17.7598 19.6144 0 
1.94632 -16.8711 0 
1.35147 19.066 0 
11.7151 -15.0916 0 
-4.03544 15 0 
-14.5671 15.0017 0 
-19.9982 -4.62548 0 
6.27193 19.9902 0 
-5.0686 -11.5325 0 
-7.14372 19.9697 0 
-19.875 -3.00722 0 
-19.9985 -19.9993 0 
19.817 -19.5804 0 
20 -19.8962 0 
14.9391 19.9785 0 
-15.602 -20 0 
14.4655 19.5669 0 
-19.8864 -19.9974 0 
1.25911 19.5256 0 
-19.894 -0.394645 0 
-11.5897 -3.17878 0 
-15.7958 -15.2272 0 
14.5448 -20 0 
-20 19.5032 0 
14.4968 19.9736 0 
-19.9369 14.6066 0 
-20 15.0287 0 
-11.2207 18.4812 0 
-19.9986 -19.9994 0 
-20 20 0 
-19.9278 6.97752 0 
-19.8139 7.84543 0 
-19.755 -18.807 0 
14.95 -19.9899 0 
-16.4368 7.76024 0 
0.833087 -18.6025 0 
-11.7581 19.9933 0 
-10.2916 15 0 
-20 15.0589 0 
-10.7195 19.9903 0 
12.7822 -15.129 0 
-10.2962 -20 0 
-3.02702 19.5134 0 
-19.7767 -15.1389 0 
-20 9.84675 0 
-19.9849 -15.0582 0 
-16.0546 -20 0 
-19.8629 -15.2616 0 
-19.9811 14.3229 0 
-20 19.4915 0 
20 -19.7736 0 
-14.9566 19.9938 0 
-14.8946 -6.64998 0 
-19.5983 -19.9948 0 
19.5838 19.833 0 
-19.899 -1.59255 0 
3.45645 19.9911 0 
2.59641 18.6508 0 
-15.9753 15.003 0 
-19.9988 5.29 0 
-15.9542 -15.3479 0 
8.028 -20 0 
-20 -20 0 
-19.9961 6.16999 0 
20 -20 0 
-3.34881 -20 0 
-20 20 0 
-17.8292 14.6573 0 
1.85854 -20 0 
-20 -20 0 
-8.53726 -15.5357 0 
-19.9991 8.64555 0 
-17.0195 -11.348 0 
-19.907 19.9453 0 
-19.9956 11.0691 0 
19.6959 19.7857 0 
16.1341 -20 0 
19.2696 19.7696 0 
-19.8958 19.5689 0 
-14.9536 15 0 
-19.9886 19.9884 0 
-19.9918 4.45533 0 
-19.9254 -10.9483 0 
-17.705 13.1802 0 
15.0008 19.9696 0 
-19.9681 14.9846 0 
4.10755 18.9912 0 
5.85433 15 0 
14.9964 19.972 0 
-19.9959 -2.10778 0 
-19.8768 -2.57739 0 
-20 20 0 
-19.9169 8.80024 0 
-20 -20 0 
18.9623 19.7799 0 
0.716497 18.6645 0 
-19.996 11.3306 0 
-20 -20 0 
-20 -20 0 
-4.31981 19.9903 0 
-20 20 0 
-19.9897 -19.998 0 
-2.26918 19.9909 0 
-6.15886 18.8938 0 
-0.96833 19.4728 0 
-20 20 0 
-19.9534 5.72587 0 
-18.8672 -19.995 0 
-3.90695 -12.6184 0 
-19.999 -19.9996 0 
14.8185 19.5737 0 
-19.9278 18.5026 0 
-19.5368 -19.9947 0 
-19.998 -3.9622 0 
13.7242 19.9869 0 
17.5286 -19.2795 0 
16.6329 -19.5113 0 
-20 20 0 
-20 19.5898 0 
-10.6767 -13.8098 0 
9.62765 -20 0 
-4.32775 -14.828 0 
-19.9858 5.84185 0 
-19.9971 -6.5789 0 
-20 15.0623 0 
-19.988 12.2174 0 
-19.9965 -19.9983 0 
-20 -20 0 
-19.6473 19.663 0 
10.0631 -18.9145 0 
-2.18481 19.9911 0 
-18.62 -19.9946 0 
-14.9507 15 0 
14.8032 19.9767 0 
-19.9952 11.9704 0 
-19.9978 -6.36985 0 
-19.9023 13.2377 0 
-20 20 0 
-19.8625 9.37245 0 
-10.42 15 0 
-19.9193 14.733 0 
13.3323 -19.2525 0 
-20 15.7153 0 
-19.7849 13.2059 0 
-19.7623 14.3491 0 
-20 15.074 0 
-19.9521 14.2773 0 
-12.2352 -10.2985 0 
-16.2943 14.8871 0 
-19.8576 17.7073 0 
-19.9021 19.7044 0 
-19.7048 13.652 0 
14.8526 -19.9937 0 
-19.8531 -2.01493 0 
-18.836 14.79 0 
3.53045 19.4799 0 
18.5743 19.6508 0 
-20 -20 0 
-2.00803 18.5858 0 
-20 -20 0 
-19.9588 14.984 0 
-20 -20 0 
-11.0148 1.50046 0 
20 -20 0 
13.8288 19.9893 0 
-7.75633 18.844 0 
-19.9334 -6.97175 0 
2.27421 -17.44 0 
-19.9929 15 0 
-19.9191 18.5361 0 
-6.5076 -18.015 0 
-20 -20 0 
-0.719345 -19.8753 0 
-19.9451 19.9572 0 
-19.8978 19.6016 0 
-20 -20 0 
15.0875 19.516 0 
-19.9955 15 0 
-18.3555 -19.9951 0 
-20 15.3481 0 
-20 -20 0 
-16.5991 15 0 
-19.863 11.8042 0 
-16.6302 15 0 
-19.7581 -18.6784 0 
15.4899 19.6537 0 
10.2891 -19.153 0 
-20 18.6506 0 
14.2496 19.9891 0 
-11.3115 16.9732 0 
-19.9977 -12.2727 0 
19.1819 -19.8306 0 
14.8231 -20 0 
-20 20 0 
11.5912 -20 0 
17.3034 -15.044 0 
-19.9954 -19.998 0 
-19.9388 -1.76349 0 
-20 17.4378 0 
-19.9468 19.9732 0 
16.5942 -19.8653 0 
-13.42 -19.6968 0 
-19.9938 -19.9312 0 
-19.994 -19.9335 0 
19.7407 -19.9278 0 
-16.6219 -19.6923 0 
-3.26502 -19.7333 0 
19.8039 -19.9253 0 
-19.9956 -19.9995 0 
18.9222 -19.9863 0 
19.9887 -19.8928 0 
-19.9941 -19.9417 0 
19.9776 -19.8902 0 
19.98 -19.8984 0 
-19.5345 -19.7851 0 
20 -19.8935 0 
20 -19.8921 0 
-19.9819 -19.9189 0 
-19.9971 -19.9994 0 
19.9732 -19.885 0 
-19.9975 -19.9997 0 
-19.9829 -19.9141 0 
19.6646 -19.9153 0 
-19.9995 -16.076 0 
20 -19.8967 0 
-19.9982 -19.9998 0 
-19.9945 -19.9993 0 
-19.8516 -19.9257 0 
1.73302 -19.5975 0 
-14.6272 -17.6993 0 
-18.2747 -19.2179 0 
-19.832 4.10958 0 
-19.2649 -17.8935 0 
14.0769 -19.9964 0 
-19.7672 10.1675 0 
-19.9971 -8.00606 0 
-18.9038 12.8353 0 
-19.4828 11.9301 0 
-11.0946 -9.0985 0 
-19.9683 -15.5961 0 
-0.0546163 -7.13159 0 
-19.3095 17.9477 0 
-14.1145 -19.5502 0 
5.95247 -10.2269 0 
-14.7167 -17.7002 0 
-19.889 -19.9372 0 
-19.8721 -19.7873 0 
19.9818 -16.3238 0 
20 -15.6937 0 
-15.9593 2.0593 0 
-19.7548 -19.6772 0 
19.9965 -16.3418 0 
4.77363 -10.2579 0 
-19.9915 19.7558 0 
-19.3661 19.8814 0 
-19.9896 19.9985 0 
-19.8867 -19.9773 0 
-15.009 -15.1643 0 
4.74405 -4.91231 0 
-19.8733 -17.4245 0 
-19.9928 1.64481 0 
2.2059 -4.99759 0 
14.8632 -19.9862 0 
-19.8724 -16.2242 0 
-19.9764 19.9991 0 
-19.9268 -14.8882 0 
-19.2598 -17.9016 0 
-11.1765 -18.0356 0 
-19.9391 16.5533 0 
5.14356 -19.9971 0 
7.69858 -8.81862 0 
19.7982 -8.87728 0 
-19.1824 -14.907 0 
-19.9974 16.4911 0 
-19.9237 -19.0722 0 
-19.993 19.9995 0 
-19.2952 2.53286 0 
-19.9985 0.0414102 0 
-19.9599 -19.9632 0 
-8.6172 -19.9941 0 
-19.2444 9.99569 0 
-18.9296 6.12469 0 
-19.6451 -6.90985 0 
-17.1474 -19.7068 0 
-19.3486 19.8737 0 
-19.4261 -19.7956 0 
8.19429 -19.9935 0 
-19.9973 -17.8634 0 
-19.9975 -17.4981 0 
-19.7789 -19.7823 0 
13.0277 -19.9957 0 
19.8371 -19.914 0 
-19.9902 -19.9842 0 
19.9946 -19.9349 0 
-19.9711 -19.8759 0 
9.61791 -19.8173 0 
-20 -19.8578 0 
-19.123 -19.996 0 
-19.0406 16.759 0 
-19.8824 -16.4786 0 
-19.7715 -19.781 0 
1.65794 -19.992 0 
-15.1432 -6.4858 0 
-19.29 9.0265 0 
-19.3557 7.44517 0 
-9.06006 -19.9058 0 
-19.9419 -19.9318 0 
9.46452 -19.6409 0 
19.9231 -19.7662 0 
-19.9977 -8.57704 0 
-19.976 -19.9769 0 
14.6674 -19.8881 0 
-19.9967 -19.9773 0 
6.70466 -8.80181 0 
-19.8638 -19.8146 0 
-6.41557 -19.8292 0 
-19.6282 -13.8847 0 
-19.9964 -19.9791 0 
-19.9988 -15.6934 0 
-19.9863 -19.9079 0 
12.2785 -19.9046 0 
2.62211 -17.5099 0 
-19.9874 19.997 0 
14.4474 -14.8289 0 
-19.9995 -19.1835 0 
-19.5819 -16.0279 0 
3.71781 -19.8442 0 
19.6625 -19.8508 0 
-19.9705 -4.97638 0 
-19.9989 -13.4528 0 
-19.998 7.32421 0 
-19.9345 -14.9325 0 
-11.907 3.86948 0 
-19.3717 -17.7293 0 
10.2571 -8.54417 0 
-19.7746 -19.7889 0 
6.73309 -19.9759 0 
-16.1183 -16.6361 0 
-14.1506 -19.651 0 
-18.9421 16.8874 0 
-11.7916 -0.656021 0 
19.8271 -19.8851 0 
-3.92272 -2.81793 0 
-19.6851 -19.9821 0 
-2.74041 -5.68449 0 
-19.724 13.7199 0 
-19.8226 -19.8355 0 
14.7327 8.20961 0 
-19.9777 -19.8898 0 
-19.9727 -19.8946 0 
-4.06161 -19.3843 0 
-19.0295 -19.3233 0 
-19.9954 -17.1457 0 
-19.8893 19.7673 0 
-18.243 -9.16833 0 
-19.5211 10.3621 0 
-17.6311 -19.317 0 
-7.69651 -19.9364 0 
-19.7664 -19.7555 0 
-19.9939 -9.22316 0 
-19.3971 -11.8817 0 
-19.9533 -5.40319 0 
4.78327 -19.9949 0 
5.47927 -19.9915 0 
-13.7942 -9.98015 0 
-19.7946 -19.7713 0 
-20 -20 0 
-19.7313 -7.49854 0 
19.6002 -6.66894 0 
-5.41957 5.2703 0 
14.6551 -0.8522 0 
14.7034 -19.8671 0 
-19.9988 -12.1912 0 
-19.9899 -19.9857 0 
-19.72 -19.9641 0 
5.23046 -19.6569 0 
17.418 -15.1871 0 
-19.9991 -15.4593 0 
-19.2256 -19.4315 0 
14.7403 -17.9646 0 
19.9991 -19.9476 0 
14.7564 -18.4105 0 
-2.29286 -17.955 0 
20 -19.7968 0 
-19.9993 -19.2286 0 
-19.9995 -19.9999 0 
-19.9886 14.3696 0 
-19.8875 -13.5094 0 
4.24403 -19.9008 0 
19.8355 -19.9142 0 
-19.639 -19.9095 0 
-19.7134 17.5378 0 
8.6974 -19.9937 0 
16.4387 -16.243 0 
-19.5447 -19.8149 0 
3.57897 -19.3045 0 
-2.05181 -19.9953 0 
4.73292 0.780052 0 
4.18429 -5.78771 0 
-4.18444 -19.2656 0 
9.41205 -19.9342 0 
-8.94561 -14.0534 0 
-19.9159 -18.4603 0 
17.4734 -19.923 0 