<VTKFile type="UnstructuredGrid" version="0.1" byte_order="BigEndian">
  <UnstructuredGrid>
        <Piece NumberOfPoints="8000" NumberOfCells="0" Time= "0.455">      <Points>
        <DataArray name="Position" type="Float32"  NumberOfComponents= "3"  format="ascii">

34.9122 1.34931 0 
38.3902 19.1227 0 
41.0184 11.8284 0 
43.522 0.178713 0 
42.6496 12.847 0 
43.6023 14.3763 0 
41.4565 16.2142 0 
43.5097 22.295 0 
43.6447 30.53 0 
44.9331 6.002 0 
45.2497 4.83804 0 
45.9493 7.91497 0 
44.745 8.92314 0 
45.891 8.56956 0 
45.3069 17.7394 0 
46.1016 22.4417 0 
45.5853 23.5716 0 
45.4447 24.0479 0 
45.8908 30.305 0 
45.4709 33.259 0 
45.6786 33.2 0 
47.9541 2.47146 0 
47.1017 3.53213 0 
48.277 5.9416 0 
46.6119 6.75546 0 
48.5264 9.15348 0 
47.7269 10.2498 0 
47.0991 9.72451 0 
46.9085 9.46498 0 
48.5028 12.6866 0 
48.9089 13.8451 0 
46.847 14.4155 0 
47.1766 13.8875 0 
47.4497 13.8766 0 
47.3078 15.5764 0 
48.6655 16.5384 0 
48.885 16.5189 0 
46.704 16.5142 0 
47.8217 21.4532 0 
47.5308 20.9407 0 
47.4116 22.1842 0 
46.9396 22.7776 0 
48.3981 25.7509 0 
47.6498 24.5448 0 
47.8146 26.4226 0 
48.6034 28.0047 0 
47.3234 28.6451 0 
48.3667 27.9049 0 
47.9133 29.3484 0 
47.6892 31.006 0 
46.4806 32.3406 0 
46.6598 34.0249 0 
47.0865 36.1924 0 
47.0356 37.0364 0 
47.056 34.8648 0 
47.8286 36.9972 0 
47.4222 38.7994 0 
47.3727 39.4483 0 
51.3072 38.3836 0 
48.6766 0.55156 0 
49.9007 0.197362 0 
51.2777 0.626078 0 
48.9894 0.636536 0 
48.858 2.74142 0 
50.8285 2.4438 0 
50.2242 3.20536 0 
50.9623 3.31995 0 
50.2359 2.31399 0 
49.6271 5.95603 0 
48.7523 4.49326 0 
49.962 7.0423 0 
49.0722 6.92454 0 
51.2744 4.46697 0 
51.0231 6.37898 0 
49.2367 8.43742 0 
50.8694 7.61776 0 
50.0659 8.61994 0 
50.8402 7.62392 0 
50.2919 9.41349 0 
50.6443 10.0427 0 
51.072 9.95539 0 
49.2912 11.2446 0 
49.0282 10.6826 0 
50.4021 9.57342 0 
50.5846 11.2619 0 
49.0234 10.1702 0 
50.1285 11.5431 0 
51.1962 14.5009 0 
49.5112 13.1772 0 
50.4973 12.81 0 
51.2763 15.9834 0 
49.5679 14.9693 0 
50.3746 18.1483 0 
49.1201 17.6494 0 
48.8402 18.8787 0 
50.7655 20.1527 0 
48.8102 20.1188 0 
51.0465 21.3933 0 
50.5783 24.0192 0 
50.15 22.4449 0 
50.4517 24.0461 0 
49.321 24.412 0 
50.9904 23.7769 0 
48.6762 25.7576 0 
51.1476 26.4493 0 
50.0348 25.089 0 
48.8076 26.9095 0 
51.0296 26.031 0 
50.0863 24.7919 0 
49.953 26.6442 0 
49.0423 27.22 0 
49.349 29.2681 0 
50.4328 28.0433 0 
50.6091 31.4583 0 
50.6758 31.0136 0 
49.6397 30.7151 0 
50.2332 31.6747 0 
50.8267 31.8619 0 
50.4742 33.5683 0 
49.8007 34.1862 0 
49.7314 33.409 0 
50.3351 34.0196 0 
50.9944 34.8217 0 
49.3013 35.4213 0 
50.0811 36.1867 0 
50.9883 35.9549 0 
50.1152 35.374 0 
51.2264 38.1741 0 
49.7965 37.4109 0 
50.1323 37.4647 0 
49.2447 39.6095 0 
50.5215 38.5907 0 
51.0629 39.2814 0 
51.9344 0.95086 0 
52.7927 0.0556836 0 
53.651 1.0774 0 
51.8333 1.48068 0 
52.7666 38.4585 0 
51.6364 0.170068 0 
52.4529 1.06238 0 
52.0259 3.22193 0 
51.6811 3.75025 0 
53.5666 2.79183 0 
52.0448 1.75819 0 
51.9684 3.85252 0 
51.3667 4.55801 0 
51.4228 3.78714 0 
53.4792 2.80653 0 
52.6337 1.75967 0 
52.8347 3.26748 0 
52.4688 4.63459 0 
52.6561 6.31702 0 
52.0667 6.25593 0 
52.1077 5.72897 0 
52.3656 5.97679 0 
52.2291 6.9462 0 
52.8376 6.84124 0 
52.038 7.88802 0 
52.7146 8.51493 0 
51.6727 8.41416 0 
53.0212 7.86542 0 
52.1333 8.36288 0 
52.6845 8.68856 0 
52.6651 7.50403 0 
53.5124 9.56067 0 
53.4344 8.39056 0 
51.915 8.70499 0 
53.1781 8.88135 0 
51.7407 9.47343 0 
51.4846 10.3048 0 
52.5988 9.7369 0 
51.3131 10.0309 0 
51.396 10.1403 0 
51.8771 10.9777 0 
52.1225 9.61112 0 
53.2416 10.4233 0 
51.6686 10.8411 0 
53.6311 10.1085 0 
52.2155 10.9627 0 
52.7033 13.1959 0 
53.1215 13.2788 0 
52.5127 13.3051 0 
52.1247 14.2887 0 
52.1208 13.0147 0 
52.5249 12.2777 0 
51.6241 11.8783 0 
51.6428 12.6785 0 
53.5361 15.2272 0 
52.348 14.8689 0 
53.1743 14.4496 0 
52.8381 16.4869 0 
51.9187 15.81 0 
53.7043 15.8659 0 
52.0756 16.7895 0 
51.7114 16.1733 0 
52.6079 17.1827 0 
53.0193 18.0799 0 
51.9807 19.9932 0 
53.1414 19.6086 0 
52.7467 19.307 0 
53.4342 17.7831 0 
52.1132 18.6533 0 
53.2988 18.6632 0 
52.4885 18.8226 0 
51.2092 20.4884 0 
52.6283 21.1904 0 
51.9608 21.7069 0 
52.5013 20.3755 0 
52.2201 24.2193 0 
52.3152 21.7747 0 
52.8682 22.8729 0 
53.1604 23.8987 0 
53.7956 23.1245 0 
53.1755 25.0566 0 
51.9972 26.1222 0 
51.9989 25.4418 0 
52.82 25.2297 0 
53.4971 26.6624 0 
51.9885 25.1182 0 
53.4435 26.3606 0 
53.5178 27.658 0 
52.1141 30.4039 0 
51.7209 30.8366 0 
53.4601 30.2012 0 
53.276 31.7368 0 
53.3495 31.7952 0 
52.6562 30.0157 0 
52.7653 31.0246 0 
52.8427 31.3696 0 
52.9678 30.5823 0 
53.5533 31.7635 0 
52.9057 33.5787 0 
52.6188 32.1058 0 
52.3172 32.1096 0 
53.5768 32.6134 0 
53.6337 32.9689 0 
52.0162 32.9565 0 
53.5854 34.9682 0 
51.2924 35.3138 0 
52.2157 34.8372 0 
51.6802 35.8414 0 
52.2395 36.2411 0 
51.5535 35.1177 0 
53.7026 37.8093 0 
53.6153 37.9066 0 
51.7513 37.4953 0 
51.9546 37.424 0 
52.8588 38.0129 0 
51.474 37.3219 0 
54.2517 38.5748 0 
55.8315 39.0946 0 
55.74 39.7388 0 
54.5987 0.751303 0 
55.1476 39.1234 0 
54.5339 39.5104 0 
55.9573 0.270397 0 
55.2015 0.165915 0 
55.8609 1.01844 0 
55.1711 1.514 0 
53.618 3.72055 0 
55.3483 2.71984 0 
54.6528 2.64809 0 
56.2007 2.91533 0 
54.9028 3.66897 0 
55.7588 3.45337 0 
55.9055 3.30404 0 
54.6113 3.28582 0 
54.3767 1.62161 0 
54.5328 2.65584 0 
55.64 2.62159 0 
55.3025 1.71943 0 
54.5353 3.55876 0 
54.5017 3.77006 0 
54.7592 2.49205 0 
55.3369 6.05433 0 
54.6935 5.47234 0 
54.145 6.16902 0 
54.4994 5.06057 0 
54.797 4.77347 0 
54.1901 5.8505 0 
55.5236 5.73189 0 
54.5332 6.24735 0 
54.8927 4.87588 0 
54.2425 6.40757 0 
55.1872 4.03142 0 
55.5268 5.8018 0 
53.9474 5.48219 0 
56.168 5.86202 0 
54.3567 4.83925 0 
54.5214 7.06524 0 
54.952 7.62324 0 
55.9246 6.71758 0 
54.1074 7.09597 0 
54.6972 8.88202 0 
54.7463 7.53198 0 
54.9256 7.8881 0 
55.7378 7.32594 0 
55.8486 6.87356 0 
55.017 8.32247 0 
55.713 7.84445 0 
56.3077 7.12866 0 
54.0376 7.44943 0 
54.3294 6.97966 0 
54.9152 10.7005 0 
55.7493 11.1907 0 
54.3066 11.0084 0 
55.7966 11.2293 0 
54.4752 11.3487 0 
55.1821 9.73014 0 
54.1561 11.0121 0 
54.9137 12.1146 0 
55.185 10.228 0 
55.5019 9.25908 0 
54.992 10.2586 0 
54.3661 11.1488 0 
54.9725 11.2209 0 
55.6079 10.9527 0 
54.7152 10.3514 0 
55.9364 11.3741 0 
53.5968 13.048 0 
55.8935 12.9826 0 
55.8865 12.7762 0 
56.063 13.4185 0 
56.2885 15.1017 0 
54.9951 14.3912 0 
55.7915 13.8127 0 
55.8995 13.7616 0 
53.7709 12.1451 0 
55.6813 12.809 0 
54.2121 14.1536 0 
54.6681 14.2036 0 
56.1851 13.8678 0 
56.0864 14.3329 0 
55.2956 15.3792 0 
53.9097 17.1587 0 
54.934 16.2622 0 
54.9991 16.2208 0 
55.7244 15.6395 0 
55.8574 15.0179 0 
55.4807 18.3432 0 
54.0408 19.1388 0 
54.7811 17.3433 0 
55.6419 18.4418 0 
55.047 18.1996 0 
54.9429 17.3509 0 
53.7561 18.3436 0 
54.4585 18.7409 0 
55.5427 18.8276 0 
54.3252 17.4182 0 
54.7022 18.6039 0 
54.5325 18.3703 0 
55.1687 19.1599 0 
55.7306 20.1682 0 
54.5868 19.4978 0 
55.8266 18.1816 0 
55.4325 17.924 0 
55.8644 18.2824 0 
55.7845 20.7938 0 
56.253 22.0417 0 
54.1537 20.3912 0 
56.1166 21.2417 0 
56.2332 21.7462 0 
55.6947 22.1314 0 
55.4887 19.7241 0 
55.5244 22.0954 0 
53.889 20.9781 0 
56.2945 20.487 0 
54.6225 20.3889 0 
54.9653 19.6603 0 
54.3656 21.839 0 
56.3183 20.9168 0 
53.7498 20.071 0 
55.0866 22.1509 0 
54.7888 19.6983 0 
54.122 22.4796 0 
55.7769 24.1126 0 
54.0177 22.6924 0 
53.8915 24.0266 0 
55.7163 23.2246 0 
55.2823 22.1582 0 
54.3711 22.8931 0 
54.1696 24.1245 0 
55.5006 22.9521 0 
53.9706 25.9043 0 
55.065 24.323 0 
55.1151 26.7298 0 
55.6592 26.3395 0 
56.1715 24.6202 0 
54.5449 26.6491 0 
55.1142 26.6672 0 
53.8077 24.3021 0 
55.2319 25.913 0 
55.8332 26.0611 0 
55.8917 24.6428 0 
55.5443 26.4583 0 
54.9142 28.9737 0 
54.35 29.5076 0 
55.3365 28.9333 0 
54.0486 27.011 0 
54.911 27.3311 0 
55.1081 27.9786 0 
55.2957 30.6351 0 
55.7712 30.908 0 
54.4302 31.2954 0 
53.5602 30.3081 0 
54.2388 30.8438 0 
55.134 30.1772 0 
54.1313 30.297 0 
54.3142 30.5885 0 
55.6539 32.2896 0 
56.2219 30.0466 0 
55.5547 29.9042 0 
55.791 31.115 0 
56.1636 33.8436 0 
55.766 33.6429 0 
54.0648 32.6882 0 
54.3907 33.9529 0 
56.2128 32.8692 0 
55.4546 33.7908 0 
56.4594 33.7024 0 
53.7306 31.9882 0 
54.0276 33.548 0 
55.439 33.8568 0 
54.6349 33.0746 0 
55.7118 33.639 0 
55.2999 36.14 0 
55.8656 35.1528 0 
56.0036 35.1434 0 
54.8104 35.4539 0 
56.0315 34.588 0 
56.1823 36.4308 0 
54.3418 35.0938 0 
55.8854 35.6388 0 
54.8063 37.0819 0 
55.4632 34.4985 0 
54.1692 36.7675 0 
54.7472 35.3697 0 
54.2071 35.9031 0 
54.9359 34.8141 0 
55.9116 38.7965 0 
54.733 38.1789 0 
54.2171 38.7589 0 
55.5956 37.9031 0 
54.7945 36.5589 0 
55.6524 37.528 0 
54.0246 38.0682 0 
54.7473 36.7759 0 
58.0272 1.44649 0 
56.6999 39.8791 0 
57.3583 39.0432 0 
57.5558 0.370833 0 
56.2239 39.5084 0 
57.5968 38.6614 0 
56.6754 1.57505 0 
58.2297 1.75926 0 
56.9378 37.5096 0 
58.8705 1.26375 0 
58.4604 38.3595 0 
58.6192 0.225703 0 
57.2937 0.334563 0 
57.8292 1.18669 0 
57.5566 0.0228506 0 
57.6969 2.3092 0 
56.2351 2.00751 0 
56.801 3.20718 0 
56.5938 2.67266 0 
56.9497 2.18588 0 
56.8967 3.50532 0 
58.1777 3.84381 0 
58.0552 3.30979 0 
57.2203 4.24387 0 
57.7352 3.92619 0 
56.6068 4.22904 0 
57.413 2.89708 0 
57.6309 3.99257 0 
57.6757 4.51653 0 
57.3023 2.19671 0 
58.202 2.43264 0 
57.9514 1.5589 0 
58.1038 4.68032 0 
57.0284 3.89555 0 
57.7905 5.71196 0 
56.7988 5.15975 0 
57.9264 4.37785 0 
57.2725 6.14912 0 
57.4614 6.60292 0 
58.3661 5.43397 0 
56.8134 4.2844 0 
56.2517 5.9946 0 
58.3721 6.46632 0 
57.0445 8.41003 0 
57.9247 9.06736 0 
58.406 7.3467 0 
57.2632 7.27748 0 
57.609 8.9719 0 
58.3702 8.30926 0 
57.9338 6.56258 0 
56.6774 7.75928 0 
58.3776 7.96237 0 
57.8196 8.70136 0 
56.6415 7.39629 0 
58.5362 9.4211 0 
56.8033 7.23825 0 
57.0367 6.90302 0 
57.7925 7.59721 0 
56.9273 9.26407 0 
57.876 11.5881 0 
58.7533 9.48473 0 
58.1687 10.4101 0 
58.3321 9.805 0 
56.6227 10.5906 0 
58.3518 9.79113 0 
57.8493 10.2988 0 
58.1105 10.1757 0 
56.8316 10.6454 0 
57.7115 10.5921 0 
57.3213 10.3275 0 
[...]
      <PointData Vectors="vector">
        <DataArray type="Float32" Name="Velocity" NumberOfComponents="3" format="ascii">

-247.14 -185.82 0 
-231.477 -103.832 0 
-217.521 -134.618 0 
-289.161 -95.444 0 
-274.553 -143.539 0 
-282.504 -116.022 0 
-307.236 -136.991 0 
-235.644 -128.29 0 
-213.193 -122.68 0 
-222.55 -80.1048 0 
-204.114 -67.0263 0 
-278.133 -181.043 0 
-242.722 -151.842 0 
-299.579 -150.964 0 
-262.742 -155.202 0 
-278.37 -146.409 0 
-256.607 -185.022 0 
-267.095 -111.997 0 
-227.431 -100.992 0 
-230.943 -131.494 0 
-268.002 -32.4239 0 
-298.364 -86.7966 0 
-230.717 -131.061 0 
-234.296 -105.96 0 
-237.304 -78.0133 0 
-259.032 -136.03 0 
-269.091 -19.5929 0 
-217.777 -11.1336 0 
-212.052 -94.5194 0 
-268.346 -80.8739 0 
-278.908 -102.801 0 
-220.668 34.323 0 
-263.891 -59.5052 0 
-264.447 -196.639 0 
-267.669 -63.8547 0 
-279.458 -48.7498 0 
-241.6 -197.402 0 
-241.919 -71.0356 0 
-221.19 36.3996 0 
-235.761 167.586 0 
-261.886 -192.954 0 
-268.759 -62.5431 0 
-217.823 -44.6782 0 
-233.079 -193.965 0 
-232.808 -177.142 0 
-254.614 -168.402 0 
-248.979 -26.3365 0 
-282.176 -145.096 0 
-252.199 -24.9234 0 
-265.798 -38.8538 0 
-209.199 -178.601 0 
-173.348 72.2435 0 
-303.91 -144.761 0 
-189.271 -35.6288 0 
-214.729 -117.119 0 
-265.438 -167.857 0 
-216.137 -128.463 0 
-192.537 -129.05 0 
-314.022 -147.37 0 
-276.476 -53.0326 0 
-197.132 75.0482 0 
-219.976 -112.309 0 
-204.578 -128.464 0 
-234.942 -106.13 0 
-286.483 -127.935 0 
-242.256 -96.938 0 
-264.533 -120.733 0 
-271.493 -122.259 0 
-202.499 -72.2729 0 
-253.008 -243.023 0 
-285.381 -75.5503 0 
-218.703 -129.94 0 
-246.953 -118.491 0 
-226.63 -67.1454 0 
-204.244 -73.8824 0 
-254.9 -51.7815 0 
-204.049 -81.6117 0 
-253.437 -85.5547 0 
-233.907 -83.8233 0 
-247.336 -48.7276 0 
-230.846 -91.4938 0 
-289.741 -119.075 0 
-235.044 -86.0874 0 
-269.06 -187.071 0 
-260.753 -192.699 0 
-244.566 -41.7411 0 
-226.732 47.66 0 
-231.973 -152.497 0 
-262.187 -32.8002 0 
-260.715 -166.265 0 
-293.808 -82.3648 0 
-251.916 -227.209 0 
-249.849 -192.783 0 
-237.985 -62.4133 0 
-219.033 -51.7276 0 
-247.189 -218.101 0 
-215.05 -191.183 0 
-290.83 -59.3988 0 
-243.615 -136.3 0 
-261.204 -61.2487 0 
-288.85 -36.2165 0 
-266.342 -210.55 0 
-227.155 -130.496 0 
-226.719 -144.286 0 
-277.272 -178.778 0 
-227.272 -159.668 0 
-237.953 -59.1128 0 
-257.58 -99.5736 0 
-237.226 7.46391 0 
-224.343 -178.106 0 
-276.769 -125.46 0 
-291.55 -164.749 0 
-255.232 -195.191 0 
-316.76 -177.512 0 
-246.932 -170.316 0 
-232.976 -184.515 0 
-256.508 -183.267 0 
-242.069 -196.76 0 
-270.954 -62.9095 0 
-232.012 -162.816 0 
-241.998 -34.6938 0 
-212.844 -121.041 0 
-259.31 -138.055 0 
-306.662 -71.3306 0 
-259.383 -190.44 0 
-208.958 -33.4794 0 
-250.752 -176.939 0 
-240.395 -160.973 0 
-283.31 -179.016 0 
-281.382 -156.548 0 
-279.392 -57.822 0 
-251.38 -115.941 0 
-259.856 -18.1435 0 
-228.717 32.7019 0 
-283.135 -170.847 0 
-275.168 -72.1863 0 
-232.829 -122.152 0 
-260.497 8.97525 0 
-241.535 -21.9438 0 
-235.273 -120.37 0 
-266.863 -116.052 0 
-208.758 -116.512 0 
-222.961 12.2537 0 
-271.471 -147.81 0 
-253.275 -158.272 0 
-263.59 -147.793 0 
-217.687 -82.01 0 
-256.412 -124.229 0 
-241.686 -112.461 0 
-313.503 -156.863 0 
-291.406 -139.6 0 
-253.025 -58.688 0 
-226.769 -106.699 0 
-183.698 100.577 0 
-225.675 -90.7252 0 
-212.094 -42.653 0 
-267.071 -73.8376 0 
-263.924 33.5865 0 
-265.464 -69.5677 0 
-269.181 -252.738 0 
-234.799 -145.094 0 
-230.644 -81.7381 0 
-233.058 -91.6938 0 
-255.322 -181.922 0 
-276.19 -218.404 0 
-253.885 -77.7174 0 
-269.459 -94.9766 0 
-219.989 -99.1454 0 
-266.26 -93.8534 0 
-247.765 -133.406 0 
-253.472 -202.253 0 
-268.147 -115.881 0 
-217.835 -187.95 0 
-234.12 -129.779 0 
-217.423 -64.376 0 
-232.497 -181.281 0 
-251.299 -83.5219 0 
-281.048 -235.52 0 
-200.565 -195.142 0 
-237.01 -168.731 0 
-243.499 -49.5217 0 
-210.191 -52.9918 0 
-224.624 -63.4838 0 
-271.218 -81.0633 0 
-180.502 -84.9591 0 
-227.298 -57.456 0 
-296.11 -210.089 0 
-247.008 -166.734 0 
-285.417 -119.289 0 
-271.831 -170.347 0 
-206.747 -32.7057 0 
-259.802 -195.848 0 
-275.596 -230.458 0 
-261.842 -204.287 0 
-256.402 -197.568 0 
-279.64 -164.539 0 
-198.767 -61.9241 0 
-239.198 -174.373 0 
-184.476 -73.283 0 
-229.022 -202.385 0 
-274.778 -80.6921 0 
-260.68 -197.004 0 
-238.188 -68.2471 0 
-242.729 -97.5986 0 
-199.219 18.8955 0 
-242.432 -207.249 0 
-245.391 -192.769 0 
-244.353 -81.863 0 
-265.402 -203.697 0 
-254.743 -164.304 0 
-265.927 -187.943 0 
-235.047 -69.4455 0 
-238.05 -56.2547 0 
-282.078 -214.779 0 
-222.212 -178.49 0 
-233.392 -170.157 0 
-273.809 -78.1203 0 
-285.634 -73.2474 0 
-264.523 -80.7049 0 
-253.838 -194.682 0 
-254.382 -76.1188 0 
-271.091 -224.719 0 
-274.864 -119.555 0 
-298.995 -159.128 0 
-250.644 -61.9435 0 
-320.661 -189.331 0 
-284.148 -162.032 0 
-270.864 -166.453 0 
-192.607 -42.5632 0 
-283.877 -225.901 0 
-281.635 -230.629 0 
-284.095 -182.536 0 
-260.181 -74.6941 0 
-243.555 -34.5806 0 
-222.382 -151.972 0 
-235.634 -26.3873 0 
-231.13 74.747 0 
-268.326 -176.849 0 
-247.161 -183.411 0 
-268.889 -37.8262 0 
-232.779 -17.6196 0 
-255.672 -31.7874 0 
-228.043 -162.24 0 
-292.36 -177.056 0 
-256.685 -185.769 0 
-270.3 -73.5761 0 
-274.768 -147.227 0 
-224.317 -148.068 0 
-282.099 -154.387 0 
-253.671 -126.616 0 
-268.578 -158.371 0 
-217.739 -56.0507 0 
-233.658 -58.7164 0 
-227.875 -144.353 0 
-250.834 -186.326 0 
-275.799 -154.459 0 
-248.401 -52.8678 0 
-257.955 -135.693 0 
-205.415 -129.968 0 
-247.814 15.0098 0 
-162.924 -125.248 0 
-202.771 0.253952 0 
-238.671 -188.181 0 
-252.989 -3.21962 0 
-217.127 -150.048 0 
-253.714 -2.53772 0 
-247.383 -68.7981 0 
-199.27 41.9464 0 
-190.21 -123.158 0 
-265.494 -155.1 0 
-231.248 16.263 0 
-204.148 70.2837 0 
-237.886 -118.322 0 
-273.15 -130.039 0 
-216.478 -159.8 0 
-247.918 -159.329 0 
-234.022 -146.807 0 
-272.709 -151.943 0 
-201.023 -157.702 0 
-244.854 -99.538 0 
-219.112 42.1502 0 
-198.999 -43.8008 0 
-231.041 -113.421 0 
-255.566 -120.081 0 
-238.83 -122.789 0 
-214.108 -146.856 0 
-259.522 -100.428 0 
-284.986 -269.227 0 
-228.786 -128.506 0 
-210.668 -126.997 0 
-231.435 -131.756 0 
-217.843 37.2757 0 
-213.304 -138.433 0 
-254.689 -96.8891 0 
-310.198 -172.209 0 
-258.911 -258.657 0 
-205.758 -86.0273 0 
-227.483 -94.6556 0 
-216.263 -122.665 0 
-310.628 -131.982 0 
-295.89 -239.853 0 
-225.599 -96.6879 0 
-147.637 93.9366 0 
-232.605 -127.898 0 
-285.462 -84.1343 0 
-226.141 -86.3774 0 
-209.866 -39.7214 0 
-236.365 -42.1817 0 
-243.138 -87.9394 0 
-302.463 -149.389 0 
-239.174 -217.703 0 
-233.236 -65.0506 0 
-261.037 -107.55 0 
-244.635 -110.757 0 
-222.324 10.6074 0 
-275.222 -128.496 0 
-209.109 -99.3808 0 
-254.864 -131.814 0 
-265.072 -223.579 0 
-241.552 -111.629 0 
-266.31 -166.73 0 
-243.076 -199.304 0 
-245.903 -95.0111 0 
-278.91 -180.59 0 
-251.22 -92.4652 0 
-228.241 -14.7289 0 
-245.223 -93.9244 0 
-242.381 -193.468 0 
-217.652 -174.18 0 
-258.025 -202.45 0 
-281.954 -223.564 0 
-252.807 -12.3508 0 
-279.48 -186.687 0 
-236.821 -79.2126 0 
-252.849 -140.445 0 
-263.78 -183.409 0 
-241.397 -188.36 0 
-219.419 -180.628 0 
-307.081 -198.491 0 
-212.526 -41.5847 0 
-182.357 -82.0804 0 
-222.109 -208.533 0 
-267.331 -85.3426 0 
-260.94 -224.103 0 
-256.272 -217.933 0 
-251.046 -164.303 0 
-254.927 -134.228 0 
-238.321 -223.085 0 
-265.092 -189.17 0 
-263.692 -239.279 0 
-265.554 -208.447 0 
-218.248 -167.345 0 
-241.577 -81.7509 0 
-212.744 -83.6605 0 
-295.106 -143.771 0 
-247.435 -156.438 0 
-217.204 -192.969 0 
-219.946 -226.495 0 
-234.315 -66.577 0 
-236.167 -93.0407 0 
-275.516 -23.7696 0 
-311.269 -136.73 0 
-241.766 -87.7857 0 
-278.441 -186.421 0 
-249.147 -206.451 0 
-224.325 12.4202 0 
-253.684 -182.343 0 
-249.958 -219.171 0 
-227.299 -202.943 0 
-254.412 -171.025 0 
-213.608 -155.35 0 
-281.524 -202.343 0 
-279.594 -174.425 0 
-262.334 -185.977 0 
-202.67 -83.363 0 
-246.753 -174.369 0 
-262.765 -202.398 0 
-203.666 -148.176 0 
-248.354 -139.741 0 
-238.395 -210.331 0 
-260.721 -185.032 0 
-194.806 -185.744 0 
-269.741 -46.0511 0 
-268.532 -209.621 0 
-251.802 -204.955 0 
-228.618 -180.752 0 
-265.96 -198.223 0 
-283.078 -207.077 0 
-215.993 -61.806 0 
-204.191 -204.895 0 
-196.008 64.4342 0 
-228.696 -149.191 0 
-263.371 -180.177 0 
-288.649 -183.449 0 
-211.279 -132.533 0 
-209.536 -72.322 0 
-282.039 -161.557 0 
-169.455 55.0367 0 
-241.559 -72.872 0 
-220.163 -46.6833 0 
-213.317 -194.992 0 
-242.012 -180.056 0 
-269.542 -147.052 0 
-196.601 27.1016 0 
-253.855 -193.246 0 
-143.584 61.4331 0 
-253.738 -162.223 0 
-188.235 52.2235 0 
-261.334 -161.94 0 
-236.15 -33.3335 0 
-255.303 -171.187 0 
-276.718 -150.073 0 
-284.115 -161.554 0 
-232.138 -41.0105 0 
-232.462 -128.711 0 
-265.188 -146.253 0 
-267.394 -29.9448 0 
-269.362 0.830018 0 
-201.067 57.9894 0 
-259.332 -10.5114 0 
-191.366 -146.317 0 
-251.692 -159.064 0 
-203.689 -0.81144 0 
-238.615 -138.935 0 
-266.263 -129.766 0 
-274.844 -153.871 0 
-274.234 -158.461 0 
-235.516 -149.562 0 
-266.032 -145.081 0 
-243.263 -60.7592 0 
-239.468 -75.6978 0 
-292.68 -131.734 0 
-270.26 -165.913 0 
-240.627 -122.255 0 
-255.052 -301.099 0 
-254.164 -132.306 0 
-215.605 51.6636 0 
-246.277 -156.543 0 
-241.667 -23.1266 0 
-220.352 -90.0028 0 
-245.749 -22.5895 0 
-210.258 -126.745 0 
-284.068 -195.116 0 
-243.05 -141.861 0 
-270.018 -171.769 0 
-256.668 -138.662 0 
-242.937 -157.699 0 
-205.335 -133.819 0 
-228.302 -107.721 0 
-288.639 -225.226 0 
-243.944 -178.331 0 
-222.137 -88.2274 0 
-272.936 -297.833 0 
-290.854 -123.879 0 
-284.163 -149.472 0 
-206.648 -126.595 0 
-260.904 -115.731 0 
-231.461 -166.809 0 
-210.604 -34.2464 0 
-240.756 -23.8549 0 
-196.18 -13.6743 0 
-264.379 -151.705 0 
-248.919 -120.816 0 
-245.105 -6.36927 0 
-197.84 16.6845 0 
-230.838 -185.8 0 
-269.322 -173.153 0 
-262.285 -147.93 0 
-228.034 0.962267 0 
-231.627 85.2855 0 
-272.468 -141.917 0 
-309.272 -152.631 0 
-250.401 -101.161 0 
-256.282 -164.067 0 
-215.588 -129.744 0 
-270.931 -126.769 0 
-229.217 -30.8433 0 
-255.032 -140.414 0 
-259.27 -127.916 0 
-210.542 -138.689 0 
-238.852 -128.724 0 
-278.902 -120.997 0 
-259.216 -108.003 0 
-232.731 -217.305 0 
-250.723 -229.62 0 
-301.908 -223.14 0 
-189.521 -115.341 0 
-200.315 -105.271 0 
-265.86 -231.708 0 
-231.322 -145.627 0 
-255.81 -132.8 0 
-262.037 -147.679 0 
-248.513 -88.2541 0 
-142.673 103.193 0 
-276.48 -149.132 0 
-252.641 -130.584 0 
-225.738 -221.379 0 
-244.732 -3.61845 0 
-246.904 -222.186 0 
-268.248 -132.227 0 
-231.3 -91.2347 0 
-221.379 14.6409 0 
-223.739 -104.937 0 
-184.43 -26.4731 0 
-193.944 -80.1048 0 
-222.036 -85.2201 0 
-257.369 -99.9197 0 
-284.662 -78.7785 0 
-244.586 -96.6195 0 
-215.979 -228.017 0 
-294.277 -121.351 0 
-283.924 -99.6078 0 
-223.706 -69.9151 0 
-228.308 -38.6175 0 
-229.026 -135.275 0 
-209.298 -42.4415 0 
-208.817 -96.3687 0 
-266.325 -120.34 0 
-203.968 -111.83 0 
-275.555 -67.384 0 
-202.018 -228.099 0 
-219.655 -106.38 0 
-236.311 -90.4488 0 
-234.169 -138.191 0 
-191.894 -87.6839 0 
-267.697 -62.0072 0 
-170.558 -138.903 0 
-214.481 -114.117 0 
-202.203 -82.883 0 
-202.247 -206.37 0 
-269.011 -255.126 0 
-271.5 -70.1415 0 
-262.13 -166.632 0 
-207.374 -185.318 0 
-248.128 -191.432 0 
-200.968 -30.6928 0 
-231.863 -234.333 0 
-250.161 -200.139 0 
-259.609 -90.3702 0 
-241.282 -196.422 0 
-261.596 -208.749 0 
-245.554 -227.121 0 
-284.04 -195.715 0 
-212.31 -88.3784 0 
-234.177 37.387 0 
-232.178 -109.091 0 
-184.46 -60.3221 0 
-238.908 -212.749 0 
-246.892 -47.1698 0 
-247.221 -202.059 0 
-257.141 -195.572 0 
-255.359 -203.578 0 
-257.756 -165.161 0 
-227.564 -192.904 0 
-271.503 -225.422 0 
-293.163 -182.631 0 
-212.313 -87.7917 0 
-238.545 -193.906 0 
-269.856 -80.6912 0 
-227.699 -95.8839 0 
-240.099 -61.4831 0 
-174.325 -174.678 0 
-226.123 -116.719 0 
-185.137 -101.126 0 
-265.03 -143.135 0 
-285.726 -208.217 0 
-215.621 -79.704 0 
-230.863 -176.342 0 
-255.026 -186.418 0 
-234.497 -220.8 0 
-264.632 -157.341 0 
-283.602 -191.715 0 
-251.772 -224.793 0 
-207.959 -89.71 0 
-248.616 -198.147 0 
-269.468 -155.477 0 
-289.954 -96.3667 0 
-193.014 -72.3172 0 
-237.692 -88.7785 0 
-244.942 -168.468 0 
-253.653 -60.3044 0 
-257.816 -173.52 0 
-175.957 -171.989 0 
-289.825 -185.289 0 
-250.37 -227.313 0 
-212.394 -198.553 0 
-230.696 -89.4986 0 
-185.703 -160.467 0 
-240.877 -79.8523 0 
-246.127 -191.81 0 
-234.459 -184.526 0 
-236.364 -69.5065 0 
-254.781 -150.547 0 
-258.134 -195.88 0 
-260.087 -197.935 0 
-257.708 -168.018 0 
-216.299 -175.793 0 
-202.787 -195.843 0 
-237.374 -168.19 0 
-203.619 -194.695 0 
-247.019 -195.544 0 
-243.442 -97.8245 0 
-278.763 -191.588 0 
-262.862 -216.944 0 
-230.579 -206.098 0 
-244.391 -204.846 0 
-250.276 -218.392 0 
-202.475 56.298 0 
-226.557 -168.901 0 
-257.145 -66.1436 0 
-211.865 -195.948 0 
-253.598 -174.752 0 
-226.679 -169.212 0 
-269.433 -165.779 0 
-227.235 -142.446 0 
-278.541 -153.503 0 
-216.619 -167.176 0 
-241.926 -157.323 0 
-260.948 -135.268 0 
-218.433 -169.27 0 
-177.141 -159.461 0 
-215.271 -201.44 0 
-233.544 -193.85 0 
-215.176 -157.107 0 
-261.518 -210.063 0 
-237.222 -186.425 0 
-275.001 -180.219 0 
-276.142 -185.224 0 
-256.309 -188.497 0 
-241.555 -22.5018 0 
-258.072 -182.578 0 
-213.48 -139.187 0 
-239.262 -153.134 0 
-236.399 -144.723 0 
-269.516 -188.087 0 
-200.581 -35.8654 0 
-242.211 -181.801 0 
-227.067 -134.462 0 
-220.428 -152.279 0 
-195.263 -138.213 0 
-232.698 -52.951 0 
-270.511 -138.955 0 
-228.052 -258.88 0 
-239.532 -177.215 0 
-265.968 -148.001 0 
-222.814 -164.886 0 
-247.292 -144.581 0 
-237.017 -195.105 0 
-251.28 -105.931 0 
-233.393 -164.674 0 
-186.876 -173.467 0 
-198.256 -42.2054 0 
-246.996 -130.833 0 
-237.995 -15.459 0 
-267.112 -137.623 0 
-293.49 -20.6281 0 
-231.962 -210.665 0 
-268.488 -151.656 0 
-284.537 -45.9588 0 
-184.423 -139.98 0 
-261.059 -138.322 0 
-231.056 -142.778 0 
-247.475 -153.942 0 
-193.64 -140.58 0 
-271.32 -175.517 0 
-238.461 -234.616 0 
-261.171 -104.7 0 
-232.232 -176.213 0 
-212.083 -163.678 0 
-271.259 -41.9717 0 
-246.636 -164.106 0 
-240.487 -2.57286 0 
-229.728 -176.902 0 
-265.147 -174.538 0 
-203.202 -171.535 0 
-285.594 -252.93 0 
-260.645 -140.36 0 
-257.309 -19.9077 0 
-251.534 -117.618 0 
-258.539 -152.924 0 
-209.706 -115.666 0 
-256.496 -163.351 0 
-218.949 -177.764 0 
-239.622 -168.287 0 
-211.79 -159.969 0 
-236.593 -155.241 0 
-264.259 -156.669 0 
-181.987 -49.3872 0 
-260.688 -141.868 0 
-252.148 -165.089 0 
-205.869 -16.1447 0 
-250.825 -150.163 0 
-212.33 -136.008 0 
-272.582 -158.131 0 
-255.7 -158.571 0 
-246.825 -131.761 0 
-249.319 -174.042 0 
-225.593 -106.729 0 
-179.398 81.4353 0 
-239.038 -150.776 0 
-283.329 23.2221 0 
-221.321 -124.219 0 
-260.253 -239.4 0 
-217.769 -251.044 0 
-291.183 -137.178 0 
-177.052 -122.72 0 
-245.709 -262.649 0 
-220.319 -139.26 0 
-179.236 -162.197 0 
-223.648 -140.328 0 
-237.038 -124.516 0 
-264.441 -121.936 0 
-261.062 -226.217 0 
-210.9 -235.309 0 
-258.272 -155.896 0 
-237.87 -121.791 0 
-223.742 -103.421 0 
-260.197 -111.013 0 
-251.672 -221.997 0 
-247.137 -214.963 0 
-269.49 -134.818 0 
-204.753 -67.039 0 
-206.965 -21.4186 0 
-217.763 -89.1084 0 
-240.16 -247.65 0 
-270.209 -238.064 0 
-205.421 -246.884 0 
-263.361 -133.47 0 
-205.622 -42.067 0 
-280.322 -228.989 0 
-220.473 -156.036 0 
-269.246 -123.511 0 
-206.187 0.717274 0 
-248.571 -98.7378 0 
-231.95 -118.142 0 
-247.767 -164.412 0 
-196.088 -19.6864 0 
-202.808 112.966 0 
-209.36 -121.556 0 
-261.191 -130.186 0 
-267.969 -250.907 0 
-248.785 -193.536 0 
-223.453 -212.956 0 
-279.807 -135.835 0 
-276.682 -167.653 0 
-220.695 -104.297 0 
-249.756 -10.4751 0 
-235.266 98.8474 0 
-234.908 -208.168 0 
-205.85 -114.71 0 
-175.366 91.2747 0 
-277.01 -82.5692 0 
-217.763 -72.5432 0 
-261.163 -84.9043 0 
-217.959 -106.022 0 
-216.311 -76.7586 0 
-238.45 -136.032 0 
-223.546 -113.11 0 
-251.201 -86.8027 0 
-249.146 -202.573 0 
-267.483 -190.116 0 
-262.716 -193.984 0 
-253.33 -93.9263 0 
-199.753 -111.432 0 
-235.69 -40.3968 0 
-223.475 -101.877 0 
-260.064 -96.6756 0 
-240.593 -94.0177 0 
-246.831 -207.338 0 
-243.578 -192.445 0 
-220.396 -228.755 0 
-246.534 -200.071 0 
-276.535 -227.381 0 
-227.717 -76.0208 0 
-213.347 -245.917 0 
-219.355 -109.684 0 
-280.446 -89.2564 0 
-232.48 -225.799 0 
-238.538 -58.9672 0 
-279.876 -78.9861 0 
-262.808 -56.6806 0 
-249.748 -218.768 0 
-253.007 -194.925 0 
-182.624 -74.2658 0 
-222.896 -113.089 0 
-200.623 -210.574 0 
-220.388 -69.743 0 
-193.509 -112.856 0 
-191.489 -54.5446 0 
-219.076 -52.0486 0 
-259.481 -103.807 0 
-225.131 -95.5906 0 
-236.307 -77.3876 0 
-248.818 -101.357 0 
-198.118 -97.1246 0 
-208.593 -119.968 0 
-242.531 -218.418 0 
-285.464 -93.9947 0 
-261.681 -89.1711 0 
-269.11 -231.381 0 
-248.107 -237.854 0 
-249.651 -91.9929 0 
-281.263 -201.949 0 
-195.931 -230.25 0 
-248.889 26.9048 0 
-227.475 -220.971 0 
-211.147 26.4011 0 
-261.725 -50.2735 0 
-242.83 -245.263 0 
-219.681 -166.356 0 
-260.717 -202.452 0 
-230.016 -88.0219 0 
-178.419 -66.4446 0 
-225.493 -190.066 0 
-244.309 -105.743 0 
-236.958 -226.312 0 
-234.262 -202.395 0 
-235.913 -64.5425 0 
-194.416 -58.2749 0 
-242.216 -199.106 0 
-220.129 -164.764 0 
-225.656 -187.307 0 
-239.261 -123.321 0 
-227.406 -131.866 0 
-214.808 -82.9122 0 
-279.4 -141.855 0 
-244.934 -176.827 0 
-242.384 -130.768 0 
-174.225 -132.913 0 
-269.1 -113.491 0 
-244.698 -228.952 0 
-252.487 -212.195 0 
-255.648 -239.455 0 
-242.775 -204.485 0 
-225.727 -167.889 0 
-207.534 -138.272 0 
-283.279 -95.6218 0 
-278.905 -169.209 0 
-223.041 -183.322 0 
-273.399 -88.6755 0 
-246.782 -179.676 0 
-243.264 -195.999 0 
-209.489 -69.7076 0 
-235.636 -166.695 0 
-284.418 -72.5367 0 
-266.163 -195.726 0 
-217.283 -101.279 0 
-257.351 -209.644 0 
-262.208 -94.3261 0 
-227.69 -64.0106 0 
-238.118 -123.397 0 
-277.594 -192.415 0 
-217.276 -198.062 0 
-218.438 -195.164 0 
-264.067 -80.0844 0 
-194.154 -224.251 0 
-256.535 -164.416 0 
-198.908 -205.709 0 
-188.618 -70.4414 0 
-242.355 -160.182 0 
-217.151 -80.8666 0 
-256.458 -86.4153 0 
-269.512 -168.774 0 
-225.279 -169.37 0 
-205.602 -47.0812 0 
-244.425 -58.0109 0 
-230.458 68.4201 0 
-239.363 -204.592 0 
-200.693 -164.884 0 
-223.456 -66.4251 0 
-218.538 -178.15 0 
-250.349 -178.61 0 
-226.248 -193.746 0 
-237.617 -171.061 0 
-168.56 -69.0252 0 
-220.963 -185.992 0 
-208.333 -108.817 0 
-215.154 -197.367 0 
-258.98 -67.3551 0 
-227.187 -172.279 0 
-260.604 -217.273 0 
-240.339 -209.365 0 
-248.753 -115.499 0 
-254.402 -70.6059 0 
-199.897 -12.9019 0 
-244.346 -107.435 0 
-217.469 -176.441 0 
-264.286 -56.7404 0 
-245.2 -69.5721 0 
-241.703 -78.946 0 
-257.665 -158.02 0 
-247.315 -42.4089 0 
-248.187 -173.769 0 
-281.457 -200.903 0 
-242.653 -180.308 0 
-275.228 -167.56 0 
-282.478 -168.111 0 
-247.947 -176.428 0 
-273.599 -157.266 0 
-224.62 -80.8998 0 
-240.773 -292.099 0 
-259.29 -173.327 0 
-209.206 -61.0392 0 
-247.381 -60.0399 0 
-208.118 -65.6639 0 
-184.559 -192.181 0 
-221.266 -159.592 0 
-224.732 -188.115 0 
-273.61 -188.346 0 
-245.128 -179.53 0 
-223.853 -148.682 0 
-252.276 -239.631 0 
-231.696 -25.1013 0 
-235.664 -183.717 0 
-264.685 -229.207 0 
-246.019 -218.318 0 
-239.546 -169.875 0 
-265.703 -144.554 0 
-222.567 -159.23 0 
-255.403 -126.035 0 
-239.466 -159.631 0 
-287.63 -180.284 0 
-246.769 -124.472 0 
-277.285 -161.446 0 
-243.449 -15.5345 0 
-265.858 -162.988 0 
-221.007 -107.513 0 
-168.19 61.5148 0 
-251.875 -158.24 0 
-209.994 -32.2975 0 
-221.991 -92.8645 0 
-273.001 -164.711 0 
-197.097 2.14632 0 
-278.437 -156.382 0 
-275.96 -133.677 0 
-250.495 -132.547 0 
-220.689 2.53687 0 
-272.895 -130.645 0 
-272.638 -145.692 0 
-205.745 -166.339 0 
-288.692 -140.244 0 
-226.756 -175.085 0 
-193.036 -153.342 0 
-200.583 -176.076 0 
-255.915 -29.9258 0 
-160.272 61.7213 0 
-296.238 -208.569 0 
-204.533 -143.566 0 
-253.432 -150.38 0 
-252.408 -180.794 0 
-209.312 -31.628 0 
-232.177 -203.721 0 
-250.442 -168.196 0 
-244.437 -146.911 0 
-238.622 -207.281 0 
-266.617 -147.037 0 
-190.696 -179.929 0 
-237.131 -239.625 0 
-316.314 -170.225 0 