<VTKFile type="UnstructuredGrid" version="0.1" byte_order="BigEndian">
  <UnstructuredGrid>
        <Piece NumberOfPoints="8000" NumberOfCells="0" Time= "0.2">      <Points>
        <DataArray name="Position" type="Float32"  NumberOfComponents= "3"  format="ascii">

96.4017 19.794 0 
95.4093 18.7067 0 
96.7396 18.4681 0 
96.3959 24.233 0 
95.8361 23.9255 0 
96.3423 32.1129 0 
94.9025 36.2065 0 
98.6134 4.26364 0 
97.0835 7.59116 0 
98.8884 7.84776 0 
97.6164 8.14234 0 
98.476 9.61112 0 
98.7838 7.08672 0 
99.1397 7.75303 0 
96.6064 7.188 0 
97.6226 7.86549 0 
97.2966 7.64858 0 
98.8769 7.00534 0 
98.9797 7.9383 0 
98.5431 8.05436 0 
98.9798 7.5553 0 
98.6728 7.67448 0 
96.6904 8.09606 0 
97.7996 8.33652 0 
98.5052 9.67673 0 
98.9538 11.8264 0 
99.1802 10.4828 0 
98.6616 10.2494 0 
97.5713 10.5408 0 
98.1584 11.2242 0 
97.7652 19.3893 0 
97.9752 22.0755 0 
98.7109 20.4722 0 
99.0367 20.5908 0 
98.1422 24.41 0 
99.2436 22.7642 0 
98.0657 23.3536 0 
98.0361 26.2379 0 
98.5885 26.1348 0 
97.5741 25.8669 0 
97.7787 26.0383 0 
98.5811 27.5708 0 
97.6256 28.7024 0 
97.209 29.4187 0 
97.8947 27.9181 0 
97.4713 28.5261 0 
98.2391 31.4578 0 
98.7418 30.9547 0 
98.3859 31.5354 0 
99.1747 32.1768 0 
98.4871 33.4924 0 
98.944 34.8786 0 
97.5892 34.6255 0 
98.2485 37.0363 0 
100.916 38.1428 0 
101.054 1.78522 0 
101.16 39.8827 0 
101.183 1.64414 0 
101.5 0.0760144 0 
101.593 39.2831 0 
100.131 0.202644 0 
101.374 0.449503 0 
101.158 2.10544 0 
100.289 2.47315 0 
101.381 3.23306 0 
100.969 4.05225 0 
99.8226 4.22975 0 
99.9675 3.70521 0 
101.512 2.7693 0 
99.2877 5.4104 0 
100.162 4.57944 0 
100.061 5.67893 0 
101.473 6.9246 0 
101.473 6.76836 0 
99.7029 6.43122 0 
101.449 6.82508 0 
100.815 7.05144 0 
99.6188 4.80602 0 
99.1957 5.29208 0 
99.4676 5.66852 0 
100.486 5.12603 0 
100.896 5.49153 0 
101.271 6.01727 0 
101.177 6.78305 0 
101.699 6.23095 0 
101.741 4.73122 0 
100.827 6.22539 0 
101.27 8.53122 0 
100.133 8.17923 0 
101.013 7.57664 0 
99.4245 7.70076 0 
100.201 7.41229 0 
99.4459 8.47814 0 
99.5152 7.24547 0 
99.465 8.62336 0 
101.605 7.89 0 
99.7925 9.20462 0 
101.803 7.89094 0 
100.839 8.8252 0 
99.3434 9.20582 0 
99.4384 10.2996 0 
101.785 11.743 0 
101.461 9.51667 0 
101.199 10.8004 0 
101.784 11.5249 0 
100.843 10.0346 0 
100.691 11.4975 0 
99.9175 9.93759 0 
101.874 9.58667 0 
101.098 11.0193 0 
100.529 11.6393 0 
101.59 11.8177 0 
101.833 10.1284 0 
101.34 12.1309 0 
101.239 10.3091 0 
100.065 12.0443 0 
101.009 10.902 0 
101.839 11.3811 0 
101.505 15.0378 0 
101.409 12.9787 0 
101.433 12.999 0 
101.824 14.8546 0 
100.39 13.1602 0 
101.255 12.278 0 
100.241 14.1486 0 
101.389 13.6044 0 
100.657 12.5058 0 
99.417 12.4698 0 
100.724 17.1875 0 
101.555 16.6137 0 
100.9 15.1221 0 
100.367 15.9937 0 
100.67 15.5026 0 
101.66 15.1968 0 
99.6614 16.6563 0 
101.22 16.5287 0 
101.583 15.7987 0 
99.6584 15.2018 0 
100.828 17.1267 0 
100.38 18.6316 0 
101.669 19.0721 0 
101.317 17.6553 0 
100.527 19.2077 0 
101.208 19.804 0 
100.492 19.4276 0 
99.1823 17.5918 0 
101.483 18.5112 0 
101.628 17.9416 0 
100.12 18.7558 0 
100.757 17.9405 0 
101.766 19.7305 0 
101.313 20.5695 0 
100.382 21.808 0 
100.098 21.1219 0 
101.605 20.4379 0 
100.506 20.4021 0 
101.494 25.0409 0 
100.461 24.1767 0 
100.156 23.011 0 
100.95 23.5411 0 
101.005 25.2218 0 
101.238 26.3344 0 
101.191 26.0164 0 
99.9312 25.7013 0 
101.27 25.4408 0 
99.3537 25.381 0 
101.564 25.4488 0 
100.47 26.6051 0 
101.308 29.4289 0 
100.276 29.3716 0 
101.775 28.3938 0 
101.165 28.413 0 
101.414 31.718 0 
101.93 30.2767 0 
100.82 30.8868 0 
101.522 32.6772 0 
100.092 34.6184 0 
99.9036 34.7161 0 
100.985 33.1026 0 
100.856 35.3788 0 
99.2848 36.4566 0 
101.58 36.0257 0 
100.421 35.9277 0 
100.166 37.4298 0 
101.804 37.0741 0 
100.479 39.1325 0 
99.6919 38.2563 0 
100.964 38.4758 0 
101.736 38.4279 0 
103.615 37.8521 0 
103.451 39.6541 0 
103.471 1.03437 0 
103.328 39.4179 0 
102.102 0.572602 0 
102.5 0.101796 0 
104.086 38.8631 0 
103.237 39.2172 0 
103.163 1.45373 0 
104.138 0.909403 0 
102.91 0.354911 0 
104.272 4.14968 0 
102.935 3.71226 0 
103.435 3.42681 0 
104.281 4.02341 0 
104.305 3.5986 0 
102.868 2.86414 0 
104.45 3.27568 0 
103.089 3.87331 0 
103.212 1.98004 0 
103.376 4.2297 0 
102.486 3.93679 0 
102.895 2.4904 0 
103.583 3.68218 0 
102.183 4.25152 0 
102.618 4.58838 0 
103.961 3.86408 0 
102.794 3.77302 0 
103.695 3.11895 0 
102.236 3.19582 0 
102.857 6.01488 0 
103.977 4.59505 0 
103.411 5.86544 0 
102.657 6.08044 0 
102.671 5.45646 0 
103.189 4.67169 0 
104.003 5.0705 0 
102.501 5.83032 0 
104.113 6.04451 0 
103.182 6.10348 0 
104.29 5.07641 0 
104.177 4.71215 0 
104.23 4.90845 0 
103.667 6.48045 0 
102.068 5.82832 0 
103.795 6.61002 0 
103.752 6.30473 0 
103.136 6.04651 0 
103.943 6.12933 0 
103.795 5.13675 0 
103.701 6.7423 0 
103.881 6.95792 0 
103.97 6.23809 0 
104.115 4.60283 0 
103.381 4.53556 0 
103.158 5.15607 0 
101.906 5.83794 0 
103.063 6.62736 0 
102.448 6.54834 0 
104.351 7.05487 0 
104.133 6.35884 0 
103.456 5.46617 0 
102.158 6.44085 0 
102.968 5.21613 0 
104.284 4.87755 0 
101.867 6.73505 0 
103.897 7.53739 0 
103.603 9.06146 0 
103.459 8.54246 0 
102.812 9.07666 0 
102.314 8.59179 0 
103.582 7.80787 0 
103.24 9.1916 0 
104.32 8.68019 0 
104.261 8.44553 0 
102.868 7.59043 0 
103.802 7.60825 0 
104.158 8.71866 0 
102.313 9.22733 0 
103.619 7.46541 0 
103.623 7.76116 0 
103.865 7.59642 0 
104.095 7.62815 0 
102.398 8.95575 0 
102.326 7.64437 0 
103.275 7.60136 0 
102.299 8.98668 0 
103.423 9.10598 0 
102.139 7.4777 0 
103.105 8.78801 0 
103.724 11.7755 0 
103.373 11.4121 0 
102.094 11.144 0 
102.271 9.98756 0 
102.791 9.92729 0 
104.254 12.1499 0 
104.261 10.9194 0 
101.866 9.92569 0 
103.494 10.1221 0 
103.84 10.0469 0 
102.847 12.0569 0 
103.894 10.022 0 
103.903 11.1126 0 
103.779 10.4745 0 
103.26 11.2107 0 
102.961 11.5273 0 
102.982 9.60167 0 
103.129 9.62901 0 
102.797 9.83219 0 
102.232 9.81804 0 
103.279 11.9896 0 
103.807 10.4098 0 
102.077 11.2967 0 
104.051 11.753 0 
103.405 10.9343 0 
103.193 11.8318 0 
103.315 11.2117 0 
103.245 9.87716 0 
102.015 10.377 0 
103.401 9.60615 0 
103.836 10.0397 0 
103.702 11.4356 0 
103.565 10.724 0 
102.83 11.9054 0 
102.885 9.86962 0 
103.571 10.5353 0 
104.262 10.3012 0 
102.813 11.2301 0 
102.841 12.9971 0 
104.124 12.9844 0 
102.414 12.647 0 
102.795 14.1825 0 
103.091 12.4827 0 
103.76 13.4663 0 
103.712 12.9303 0 
102.616 13.563 0 
103.014 12.4122 0 
102.562 12.8784 0 
104.062 12.8852 0 
102.131 14.202 0 
103.198 13.7868 0 
102.816 13.1001 0 
103.965 12.5226 0 
103.986 14.5768 0 
104.255 13.1491 0 
103.732 12.9573 0 
104.019 13.2837 0 
102.311 13.8671 0 
104.024 14.5041 0 
102.956 12.5855 0 
104.257 13.8242 0 
103.78 12.8629 0 
103.437 14.3855 0 
103.318 12.6074 0 
103.943 13.0352 0 
103.996 12.8823 0 
103.733 13.5346 0 
102.019 12.8216 0 
103.827 12.9425 0 
103.329 12.6416 0 
104.418 14.3279 0 
103.911 12.7978 0 
103.12 12.6562 0 
103.77 12.8229 0 
102.978 13.3317 0 
103.48 16.066 0 
102.752 15.0114 0 
103.137 15.5957 0 
104.256 16.3914 0 
102.51 16.2557 0 
103.552 16.14 0 
104.331 16.9752 0 
104.29 16.9449 0 
103.924 17.4685 0 
103.57 15.4606 0 
102.89 17.1025 0 
103.218 14.9086 0 
103.212 15.3431 0 
103.294 15.5338 0 
103.383 15.1727 0 
104.371 16.7945 0 
103.213 15.2838 0 
104.27 15.9738 0 
104.373 16.1954 0 
104.469 16.2077 0 
103.257 14.879 0 
102.871 15.7285 0 
103.769 16.0215 0 
103.787 16.373 0 
104.131 16.5566 0 
103.524 15.9609 0 
103.68 16.0072 0 
104.146 16.8985 0 
103.162 17.1629 0 
103.513 16.2662 0 
102.001 17.3663 0 
102.2 16.8055 0 
103.704 15.1318 0 
104.103 17.0892 0 
104.377 16.8152 0 
102.017 16.7106 0 
102.805 15.1175 0 
103.784 15.9153 0 
103.264 16.7135 0 
103.957 15.2233 0 
102.445 15.6536 0 
103.875 17.5486 0 
103.33 18.7341 0 
103.176 19.9997 0 
103.708 17.7286 0 
102.752 18.6137 0 
103.296 17.9778 0 
102.653 17.294 0 
103.424 19.1967 0 
104.266 18.9172 0 
102.574 17.578 0 
103.337 18.4444 0 
104.054 18.9504 0 
102.909 21.3852 0 
104.17 20.1522 0 
102.057 21.9573 0 
104.065 22.3043 0 
103.061 22.6585 0 
104.146 21.0138 0 
102.574 25.0869 0 
102.754 23.6842 0 
103.634 24.9534 0 
104.517 23.2876 0 
103.462 24.8057 0 
102.497 22.9361 0 
102.091 24.9828 0 
102.334 23.2228 0 
104.438 27.4851 0 
101.779 25.2024 0 
103.774 26.4367 0 
104.008 27.2905 0 
103.194 26.2788 0 
102.887 25.6686 0 
103.085 26.8937 0 
103.335 26.863 0 
104.384 25.9841 0 
103.789 26.4346 0 
104.273 26.5135 0 
102.43 27.1077 0 
102.094 25.3876 0 
103.833 26.2784 0 
102.083 26.2497 0 
103.829 30.1331 0 
103.497 28.726 0 
103.595 29.6202 0 
102.681 28.5469 0 
103.421 29.6716 0 
103.179 28.3407 0 
102.733 29.7317 0 
104.329 28.5889 0 
103.003 28.8925 0 
103.186 30.5671 0 
102.877 32.4091 0 
102.32 30.5566 0 
102.198 32.8887 0 
103.951 31.5786 0 
102.44 30.7807 0 
102.914 33.4607 0 
102.261 34.2504 0 
103.167 34.8652 0 
103.072 34.7851 0 
102.041 35.3206 0 
103.757 35.2753 0 
103.669 33.7802 0 
102.134 36.6209 0 
103.355 35.9578 0 
104.189 37.8309 0 
103.068 37.245 0 
102.863 38.9945 0 
102.757 38.8101 0 
103.537 38.1467 0 
102.686 38.5802 0 
103.831 38.4131 0 
102.222 38.3902 0 
104.312 38.993 0 
104.013 37.0632 0 
106.346 2.14299 0 
105.863 0.075311 0 
106.5 1.15718 0 
106.241 1.0654 0 
106.352 1.70125 0 
106.056 1.1412 0 
106.525 1.01937 0 
105.939 0.455828 0 
106.484 1.72393 0 
106.672 0.582251 0 
105.681 0.063405 0 
105.303 38.0833 0 
104.983 1.82864 0 
105.484 39.5634 0 
104.859 0.391914 0 
104.82 1.15384 0 
105.98 3.10411 0 
106.249 3.96003 0 
106.878 4.27773 0 
106.44 3.08334 0 
106.219 2.88868 0 
105.998 2.76589 0 
106.245 2.97587 0 
106.18 2.99612 0 
106.5 4.20957 0 
105.214 4.21847 0 
106.652 3.288 0 
104.586 2.52611 0 
104.943 3.53147 0 
105.813 3.08196 0 
105.354 3.40086 0 
105.052 2.26482 0 
104.928 3.21441 0 
104.998 3.91524 0 
106.064 3.02794 0 
106.78 2.76617 0 
104.696 4.26042 0 
106.062 4.03581 0 
106.057 2.12111 0 
105.464 4.17186 0 
106.733 2.48832 0 
106.705 4.45343 0 
105.306 1.9625 0 
104.706 2.42579 0 
106.629 3.58712 0 
105.036 3.79033 0 
105.678 3.47014 0 
[...]
      <PointData Vectors="vector">
        <DataArray type="Float32" Name="Velocity" NumberOfComponents="3" format="ascii">

-123.66 119.529 0 
-197.134 -122.644 0 
-187.843 -120.878 0 
-190.738 -118.273 0 
-196.63 -74.4536 0 
-133.092 15.5896 0 
-180.93 -28.575 0 
-150.54 -12.3196 0 
-143.08 24.102 0 
-141.006 48.5331 0 
-173.113 61.3116 0 
-120.74 64.7688 0 
-124.889 91.8895 0 
-166.834 -115.163 0 
-152.747 -100.193 0 
-157.27 -134.878 0 
-135.888 -66.4905 0 
-177.643 -112.287 0 
-140.044 -111.513 0 
-152.184 -107.649 0 
-178.367 -107.213 0 
-155.823 -100.519 0 
-141.695 -124.506 0 
-159.664 -75.0441 0 
-151.349 -89.6958 0 
-188.903 -99.9703 0 
-174.374 -68.3962 0 
-154.774 -101.045 0 
-170.971 -67.4926 0 
-188.796 -109.145 0 
-150.933 -111.148 0 
-151.334 -87.3099 0 
-160.605 -94.1519 0 
-171.44 -89.7246 0 
-132.972 -97.3751 0 
-147.111 -54.861 0 
-158.844 -88.8644 0 
-164.594 -82.4077 0 
-122.201 -67.9819 0 
-184.85 -88.2971 0 
-176.834 -67.5707 0 
-133.09 -61.0812 0 
-152.674 -56.0439 0 
-146.086 -80.6141 0 
-172.707 -56.4121 0 
-168.134 -42.483 0 
-158.041 -18.5039 0 
-149.804 -55.2457 0 
-162.039 24.9159 0 
-137.642 -33.1764 0 
-174.28 -13.9446 0 
-124.729 1.49726 0 
-133.559 23.6197 0 
-130.937 0.338379 0 
-159.928 -11.7128 0 
-169.109 -5.61812 0 
-129.211 35.4295 0 
-115.709 34.7271 0 
-111.245 46.3333 0 
-127.197 37.4204 0 
-183.568 -0.0449171 0 
-155.208 25.3412 0 
-137.379 8.56513 0 
-144.374 7.24884 0 
-145.107 92.8327 0 
-134.776 66.9506 0 
-141.823 103.677 0 
-103.267 83.8578 0 
-118.49 109.528 0 
-121.384 82.2479 0 
-112.091 96.1009 0 
-111.436 87.8504 0 
-103.147 111.112 0 
-145.895 112.371 0 
-152.676 -151.221 0 
-111.146 101.116 0 
-151.884 -149.645 0 
-149.725 -128.086 0 
-133.4 -88.2266 0 
-133.902 -102.892 0 
-137.794 -107.944 0 
-161.578 -63.1242 0 
-131.953 -151.127 0 
-153.948 -102.79 0 
-145.147 -116.166 0 
-158.963 -105.717 0 
-137.434 -93.0036 0 
-154.053 -60.6785 0 
-143.373 -95.7404 0 
-156.997 -111.316 0 
-162.862 -96.1368 0 
-118.976 -87.9191 0 
-140.178 -120.776 0 
-158.623 -112.145 0 
-141.596 -99.7609 0 
-146.526 -95.2791 0 
-135.204 -88.7858 0 
-146.605 -81.8457 0 
-131.561 -62.9851 0 
-145.583 -109.41 0 
-156.756 -86.8876 0 
-119.91 -83.3303 0 
-156.472 -89.1943 0 
-146.394 -81.9842 0 
-127.287 -69.8956 0 
-151.095 -70.099 0 
-140.746 -72.2717 0 
-153.826 -83.3753 0 
-126.301 -108.297 0 
-142.211 -101.289 0 
-135.885 -85.8346 0 
-145.131 -59.8785 0 
-138.483 -46.7257 0 
-140.817 -87.1522 0 
-136.553 -75.9057 0 
-160.549 -71.2303 0 
-153.206 -80.8559 0 
-110.757 -100.627 0 
-143.207 -99.7096 0 
-134.773 -88.7623 0 
-164.18 -98.6736 0 
-112.737 -91.4537 0 
-131.069 -62.7964 0 
-145.437 -78.0332 0 
-146.226 -66.7237 0 
-126.532 -77.1096 0 
-116.743 -64.8468 0 
-166.572 -54.7471 0 
-140.407 -44.2468 0 
-110.239 -60.97 0 
-131.474 -49.768 0 
-134.121 -62.3071 0 
-142.5 -49.2097 0 
-137.086 -50.8589 0 
-112.7 -52.576 0 
-137.152 -63.7317 0 
-131.836 -34.9694 0 
-124.843 -53.8483 0 
-105.475 -78.9233 0 
-133.293 -32.9265 0 
-131.294 -42.158 0 
-116.673 -65.7258 0 
-127.605 -27.58 0 
-114.622 -43.7241 0 
-119.802 -66.5123 0 
-130.661 -33.9282 0 
-158.744 -66.9896 0 
-114.923 -20.5551 0 
-152.049 -63.2096 0 
-124.312 -26.7681 0 
-107.403 15.796 0 
-158.413 -28.0369 0 
-131.697 -11.4621 0 
-125.002 -21.3989 0 
-121.173 -10.8504 0 
-150.975 -37.8014 0 
-121.034 -36.9544 0 
-122.91 -2.91217 0 
-123.495 14.3699 0 
-158.286 -9.33675 0 
-160.873 -31.7797 0 
-137.087 -39.3739 0 
-109.995 10.1035 0 
-143.564 -19.682 0 
-108.996 -40.4934 0 
-129.307 -17.6075 0 
-127.12 -12.9993 0 
-133.427 -10.1094 0 
-134.284 1.29909 0 
-152.226 30.088 0 
-119.549 -11.5438 0 
-141.122 14.866 0 
-148.451 -0.0568754 0 
-134.563 4.59118 0 
-147.584 -2.82497 0 
-120.735 2.45634 0 
-114.827 -30.5804 0 
-148.138 -10.4272 0 
-122.329 -33.2064 0 
-96.0643 -0.481861 0 
-108.121 9.14335 0 
-121.538 44.843 0 
-99.1996 20.2611 0 
-133.277 42.8662 0 
-130.555 21.5641 0 
-95.5688 14.1317 0 
-153.783 66.3285 0 
-141.331 21.5454 0 
-129.386 59.4067 0 
-115.359 53.0138 0 
-128.547 35.0768 0 
-96.8882 -9.80512 0 
-100.175 33.6943 0 
-156.554 20.6085 0 
-120.524 62.8883 0 
-101.045 24.3794 0 
-142.879 86.248 0 
-121.152 17.9316 0 
-144.649 32.7081 0 
-118.914 72.7123 0 
-108.557 62.3391 0 
-132.541 28.3808 0 
-91.6364 53.4123 0 
-99.0358 66.9242 0 
-103.364 50.78 0 
-104.654 65.4212 0 
-138.971 86.7429 0 
-93.4498 50.19 0 
-123.984 39.5092 0 
-135.125 40.7617 0 
-111.176 58.8968 0 
-106.558 83.5576 0 
-116.35 87.0138 0 
-94.9522 91.2457 0 
-107.448 85.0859 0 
-149.586 -143.348 0 
-93.662 131.035 0 
-117.208 -156.096 0 
-112.399 120.141 0 
-103.81 125.398 0 
-87.0983 109.784 0 
-138.852 -147.528 0 
-128.36 -161.391 0 
-118.364 -147.019 0 
-95.6357 -141.059 0 
-100.305 -145.829 0 
-133.571 -121.956 0 
-128.568 -81.2125 0 
-137.123 -107.025 0 
-112.305 -149.083 0 
-106.157 -150.946 0 
-113.487 -106.61 0 
-92.0817 -138.64 0 
-134.492 -147.85 0 
-118.868 -130.029 0 
-123.81 -133.018 0 
-108.012 -83.6027 0 
-139.483 -133.13 0 
-127.318 -105.594 0 
-108.154 -85.7517 0 
-97.9829 -121.746 0 
-142.238 -113.389 0 
-104.761 -130.548 0 
-129.232 -110.693 0 
-119.495 -139.999 0 
-140.104 -120.437 0 
-124.97 -140.386 0 
-111.947 -73.1654 0 
-94.7897 -151.149 0 
-82.9225 -109.512 0 
-107.001 -125.505 0 
-117.039 -105.649 0 
-132.094 -129.758 0 
-133.736 -118.446 0 
-106.105 -81.5104 0 
-140.689 -122.187 0 
-145.506 -132.05 0 
-108.432 -108.233 0 
-138.333 -132.393 0 
-132.834 -84.7146 0 
-110.64 -124.69 0 
-140.908 -125.736 0 
-118.102 -124.077 0 
-108.804 -104.543 0 
-124.316 -89.3935 0 
-152.402 -74.1997 0 
-100.437 -74.0713 0 
-160.09 -74.8365 0 
-162.715 -86.4874 0 
-81.968 -48.1772 0 
-109.243 -116.626 0 
-132.204 -127.464 0 
-127.034 -98.6498 0 
-107.717 -94.8425 0 
-150.62 -67.3449 0 
-122.261 -79.8665 0 
-128.017 -75.3634 0 
-140.328 -75.9567 0 
-132.826 -118.631 0 
-141.471 -73.9253 0 
-91.3064 -83.1976 0 
-127.634 -86.3823 0 
-103.656 -75.4318 0 
-122.303 -76.9247 0 
-103.77 -55.5651 0 
-147.137 -78.2014 0 
-126.498 -76.1057 0 
-160.009 -87.2148 0 
-139.326 -123.552 0 
-125.869 -74.2779 0 
-108.428 -114.71 0 
-100.759 -81.8472 0 
-129.03 -86.3029 0 
-141.961 -104.32 0 
-143.304 -80.8189 0 
-138.359 -121.284 0 
-83.5092 -59.6747 0 
-124.854 -72.841 0 
-130.397 -95.605 0 
-158.808 -102.666 0 
-112.531 -125.595 0 
-103.079 -48.3278 0 
-111.012 -66.6858 0 
-148.665 -91.9892 0 
-102.171 -89.0856 0 
-144.768 -74.8309 0 
-149.438 -79.5704 0 
-109.285 -64.1555 0 
-144.207 -97.5026 0 
-104.688 -62.5175 0 
-103.63 -91.9106 0 
-156.888 -44.2891 0 
-114.438 -43.3718 0 
-101.394 -82.2232 0 
-137.374 -85.5092 0 
-105.576 -60.0391 0 
-125.858 -42.3735 0 
-118.442 -81.5525 0 
-103 -38.7254 0 
-122.585 -62.0156 0 
-165.692 -91.8292 0 
-124.997 -116.788 0 
-132.125 -68.8842 0 
-139.44 -91.9996 0 
-107.743 -63.0863 0 
-144.149 -84.2595 0 
-121.839 -43.4205 0 
-117.478 -68.5237 0 
-105.685 -43.6363 0 
-154.715 -57.8676 0 
-101.177 -61.7399 0 
-138.684 -78.3561 0 
-162.697 -30.0431 0 
-150.127 -35.5356 0 
-134.301 -67.4613 0 
-104.578 -38.753 0 
-142.523 -44.4542 0 
-104.363 -70.7706 0 
-147.804 -54.4418 0 
-142.141 -69.5237 0 
-102.738 -83.1968 0 
-123.568 -73.6197 0 
-92.1239 -80.9934 0 
-148.504 -58.0204 0 
-139.488 -45.4659 0 
-127.699 -76.1369 0 
-144.326 -34.0963 0 
-97.1825 -56.0389 0 
-130.63 -34.8231 0 
-109.597 -55.4073 0 
-128.459 -58.7374 0 
-116.187 -102.495 0 
-117.922 -39.9081 0 
-104.683 -87.723 0 
-110.147 -69.4121 0 
-133.766 -50.8212 0 
-115.879 -76.9765 0 
-117.517 -59.2687 0 
-112.499 -44.901 0 
-129.742 -77.1955 0 
-104.32 -61.9155 0 
-147.078 -37.3389 0 
-114.214 -71.8781 0 
-97.4923 -60.5202 0 
-110.473 -34.3537 0 
-117.797 -31.272 0 
-122.678 -44.7273 0 
-135.228 -33.9926 0 
-107.264 -39.4582 0 
-116.824 -51.8118 0 
-83.9331 -41.7064 0 
-111.598 -39.747 0 
-131.779 -37.8167 0 
-152.95 -64.4775 0 
-159.808 -59.6708 0 
-134.88 -33.3256 0 
-137.353 -61.6016 0 
-122.99 -2.54399 0 
-108.685 -22.8512 0 
-116.513 -36.4985 0 
-96.4511 -79.7538 0 
-151.172 -34.6839 0 
-91.1225 -31.8113 0 
-149.291 -67.6301 0 
-110.63 -36.8811 0 
-118.827 -48.2252 0 
-127.102 -45.3753 0 
-151.057 -26.1868 0 
-129.934 -54.759 0 
-111.909 -48.312 0 
-153.954 -61.5445 0 
-149.567 -46.7876 0 
-147.305 -63.9917 0 
-112.905 -14.7972 0 
-97.0222 -27.8497 0 
-149.96 -65.5826 0 
-134.319 -33.2339 0 
-85.0264 -29.2004 0 
-108.635 -12.8524 0 
-111.625 -53.9964 0 
-84.9373 -38.7074 0 
-153.455 -21.9991 0 
-142.364 -70.0249 0 
-154.261 -68.2897 0 
-133.148 -53.769 0 
-171.844 -30.5209 0 
-138.261 -50.8573 0 
-123.793 -39.3622 0 
-119.994 -22.4966 0 
-113.788 -57.394 0 
-136.213 7.43547 0 
-108.148 19.2513 0 
-136.711 -7.3551 0 
-98.5119 -26.528 0 
-132.63 4.48612 0 
-123.778 -33.1328 0 
-129.495 18.9567 0 
-113.015 -23.6592 0 
-119.656 -43.2841 0 
-149.922 -15.7403 0 
-126.671 -30.5588 0 
-99.3433 -19.0105 0 
-142.541 -33.2677 0 
-113.968 -53.7282 0 
-107.723 -48.158 0 
-91.3937 -18.1046 0 
-108.606 21.8929 0 
-120.974 13.0906 0 
-123.352 -15.1126 0 
-124.988 -17.764 0 
-102.52 1.10599 0 
-115.089 3.84261 0 
-151.428 -75.9 0 
-135.638 28.7442 0 
-106.874 -29.8576 0 
-131.532 -8.35152 0 
-101.949 6.87287 0 
-121.313 -25.8291 0 
-127.908 19.0512 0 
-122.566 -28.6601 0 
-162.188 16.8478 0 
-119.075 -62.4346 0 
-129.574 -24.3632 0 
-123.244 -51.4684 0 
-106.732 9.79811 0 
-143.897 -11.8456 0 
-101.348 -16.5951 0 
-143.845 -17.0711 0 
-132.487 -51.0689 0 
-119.94 -71.3112 0 
-135.842 -38.493 0 
-128.463 16.7651 0 
-156.981 -29.6834 0 
-98.9776 -1.69962 0 
-122.915 20.3153 0 
-136.945 -12.0988 0 
-144.113 9.76039 0 
-102.703 13.2774 0 
-115.403 0.65682 0 
-111.504 19.8371 0 
-160.593 -15.3689 0 
-148.868 24.1569 0 
-129.709 -23.1029 0 
-113.346 29.3968 0 
-161.277 -37.0045 0 
-111.635 6.82603 0 
-158.641 -19.1326 0 
-98.4255 -16.9356 0 
-118.597 -25.8781 0 
-122.186 4.36327 0 
-126.984 -11.0967 0 
-134.038 11.8475 0 
-113.765 -21.9529 0 
-94.5884 18.4989 0 
-102.112 -22.2287 0 
-96.7537 25.9519 0 
-92.5644 11.6918 0 
-129.995 15.3356 0 
-146.163 32.1687 0 
-68.8537 29.9208 0 
-87.4783 6.10952 0 
-119.191 -9.96449 0 
-114.037 43.9839 0 
-114.106 60.5732 0 
-105.838 37.9149 0 
-109.381 65.2017 0 
-146.088 51.5863 0 
-133.832 32.9902 0 
-129.677 44.5574 0 
-130.466 49.5507 0 
-82.3709 29.914 0 
-114.08 59.1257 0 
-107.132 1.07913 0 
-106.723 49.3831 0 
-121.084 45.7437 0 
-75.9223 39.9987 0 
-109.16 49.9138 0 
-130.913 63.5668 0 
-132.235 74.8363 0 
-108.827 46.9821 0 
-83.1054 75.9812 0 
-139.791 66.5875 0 
-100.7 53.1337 0 
-97.9623 53.0705 0 
-126.014 86.7009 0 
-97.1387 89.0822 0 
-91.8263 64.9406 0 
-78.3481 78.7753 0 
-72.8372 91.5365 0 
-121.303 130.194 0 
-135.7 138.673 0 
-97.7361 90.277 0 
-107.333 97.3961 0 
-82.6638 97.9998 0 
-110.214 -121.462 0 
-77.7928 -127.959 0 
-80.4204 136.524 0 
-96.1754 -171.428 0 
-99.9238 -150.528 0 
-156.008 -138.686 0 
-115.054 -129.415 0 
-111.715 -119.07 0 
-112.22 -145.765 0 
-112.824 -129.547 0 
-74.1915 113.949 0 
-87.6055 -139.219 0 
-184.389 -72.6062 0 
-174.501 -79.586 0 
-156.904 -96.211 0 
-168.618 -91.5988 0 
-161.073 -117.978 0 
-148.629 -90.9317 0 
-178.301 -98.8717 0 
-175.692 -99.1757 0 
-162.515 -92.9474 0 
-165.9 -101.204 0 
-178.005 -87.5887 0 
-173.386 -90.6393 0 
-171.079 -96.6891 0 
-170.563 -91.5373 0 
-177.746 -84.0291 0 
-171.213 -130.236 0 
-173.173 -130.245 0 
-165.367 -90.5159 0 
-165.004 -98.6111 0 
-184.643 -85.3347 0 
-173.628 -90.2289 0 
-149.54 -101.764 0 
-93.4767 -135.989 0 
-81.8682 -116.01 0 
-160.885 -162.851 0 
-118.951 -152.12 0 
-103.851 -89.9567 0 
-118.469 -128.766 0 
-131.323 -122.722 0 
-115.092 -124.789 0 
-104.112 -105.319 0 
-174.224 -132.814 0 
-178.224 -63.1724 0 
-132.005 -88.5875 0 
-142.522 -67.5441 0 
-118.573 -89.3401 0 
-115.36 -66.0504 0 
-166.167 -84.4611 0 
-169.41 -76.311 0 
-177.635 -89.2609 0 
-158.6 -96.3136 0 
-168.655 -96.4497 0 
-175.271 -70.0292 0 
-176.092 -66.2807 0 
-127.995 -84.2172 0 
-113.526 -125.782 0 
-123.86 -111.053 0 
-122.261 -105.683 0 
-102.825 -122.217 0 
-124.588 -110.663 0 
-117.386 -158.127 0 
-115.502 -93.3556 0 
-77.5308 -110.467 0 
-127.369 -157.6 0 
-87.1275 -87.2288 0 
-114.419 -131.677 0 
-124.257 -128.588 0 
-111.757 -108.087 0 
-121.614 -112.723 0 
-111.933 -113.556 0 
-116.699 -99.6302 0 
-97.5586 -113.573 0 
-111.548 -135.612 0 
-139.26 -93.496 0 
-113.525 -110.391 0 
-93.3907 -100.201 0 
-130.663 -104.709 0 
-101.699 -124.232 0 
-97.8038 -131.387 0 
-109.594 -117.866 0 
-127.859 -137.427 0 
-129.158 -132.217 0 
-120.159 -124.222 0 
-117.095 -94.4772 0 
-118.543 -129.239 0 
-118.542 -106.619 0 
-77.2942 -82.8682 0 
-112.41 -91.2649 0 
-123.149 -103.327 0 
-127.898 -118.077 0 
-128.709 -142.916 0 
-139.692 -156.896 0 
-114.681 -90.722 0 
-114.618 -116.643 0 
-112.666 -101.065 0 
-75.4899 -131.186 0 
-145.218 -133.892 0 
-155.672 -67.7564 0 
-151.862 -69.5991 0 
-183.623 -77.5335 0 
-149.892 -65.2679 0 
-82.0908 -83.9763 0 
-128.703 -69.6435 0 
-139.245 -121.295 0 
-102.084 -81.5409 0 
-131.618 -96.2803 0 
-69.7011 -86.2211 0 
-120.241 -109.41 0 
-128.87 -87.9579 0 
-123.365 -87.7379 0 
-102.32 -83.4033 0 
-82.6215 -73.8562 0 
-133.638 -72.718 0 
-129.174 -81.7207 0 
-135.132 -92.9825 0 
-75.5922 -83.5371 0 
-145.383 -109.949 0 
-126.769 -63.2412 0 
-104.596 -107.845 0 
-72.0226 -99.2497 0 
-105.736 -62.8622 0 
-119.922 -86.9136 0 
-112.954 -109.476 0 
-99.7131 -87.9745 0 
-86.7396 -66.5488 0 
-106.114 -96.4451 0 
-130.784 -95.4972 0 
-137.711 -105.689 0 
-79.7964 -66.8018 0 
-134.897 -73.7675 0 
-122.814 -125.195 0 
-100.559 -67.2842 0 
-68.4061 -98.6538 0 
-84.9529 -97.7403 0 
-109.016 -110.832 0 
-71.6595 -123.265 0 
-113.768 -80.0308 0 
-130.031 -89.5349 0 
-90.2826 -127.562 0 
-104.174 -108.635 0 
-83.8408 -60.2986 0 
-107.747 -95.9883 0 
-93.7215 -73.7097 0 
-116.232 -67.5538 0 
-162.557 -69.0015 0 
-97.1623 -60.3164 0 
-120.028 -105.43 0 
-135.584 -121.136 0 
-115.544 -95.5768 0 
-69.6971 -85.9977 0 
-115.975 -84.7806 0 
-102.16 -81.429 0 
-114.414 -104.527 0 
-83.1848 -126.958 0 
-87.39 -74.4714 0 
-81.913 -75.9041 0 
-124.382 -93.8331 0 
-107.306 -72.0543 0 
-126.311 -115.94 0 
-109.008 -62.279 0 
-84.8861 -91.3394 0 
-93.8815 -101.881 0 
-125.904 -88.2659 0 
-100.928 -100.2 0 
-91.3333 -66.0646 0 
-104.549 -87.8264 0 
-100.389 -115.14 0 
-116.684 -98.9477 0 
-105.114 -86.7974 0 
-150.789 -43.2644 0 
-126.01 -70.4539 0 
-113.86 -78.0407 0 
-124.254 -39.7884 0 
-122.51 -76.8041 0 
-123.201 -47.4099 0 
-98.1739 -70.8746 0 
-68.7763 -82.4675 0 
-129.086 -58.6485 0 
-105.911 -73.7928 0 
-99.8254 -80.5861 0 
-102.907 -82.2411 0 
-74.4672 -80.4987 0 
-77.7767 -85.2179 0 
-105.973 -58.2755 0 
-81.2015 -65.2608 0 
-108.415 -54.1365 0 
-95.3038 -47.4996 0 
-99.4652 -65.5955 0 
-140.297 -87.9859 0 
-103.564 -86.9879 0 
-77.4223 -70.5598 0 
-123.255 -72.0637 0 
-139.458 -68.1249 0 
-124.41 -81.1966 0 
-119.311 -40.0322 0 
-150.252 -51.7356 0 
-122.058 -88.8594 0 
-127.723 -73.3547 0 
-132.021 -81.4503 0 
-108.907 -66.7295 0 
-111.943 -73.1188 0 
-118.669 -67.8044 0 
-119.9 -85.79 0 
-133.086 -74.2093 0 
-96.2704 -53.3817 0 
-98.1493 -59.0707 0 
-96.1975 -58.1401 0 
-130.962 -96.1307 0 
-119.06 -72.3952 0 
-130.832 -87.9507 0 
-90.7586 -80.1794 0 
-114.377 -67.8136 0 
-105.904 -63.2311 0 
-138.899 -51.5775 0 
-127.649 -60.0541 0 
-138.116 -74.2903 0 
-109.636 -96.508 0 
-114.738 -93.0076 0 
-108.763 -71.5365 0 
-129.777 -74.416 0 
-102.814 -62.3027 0 
-92.2765 -97.2271 0 
-84.4841 -92.8515 0 
-101.129 -52.9796 0 
-115.934 -64.2166 0 
-113.029 -108.928 0 
-154.749 -6.1257 0 
-147.092 -9.80337 0 
-147.033 -8.22993 0 
-104.692 -67.6693 0 
-125.361 -66.4782 0 
-93.3751 -89.5102 0 
-92.9369 -64.5784 0 
-115.241 -58.9479 0 
-126.809 -48.1039 0 
-95.9561 -104.355 0 
-90.726 -71.7313 0 
-104.082 -79.8987 0 
-96.6586 -67.6506 0 
-85.7025 -81.3182 0 
-92.462 -105.791 0 
-113.223 -73.3573 0 
-80.3815 -104.515 0 
-116.62 -95.4937 0 
-123.24 -101.368 0 
-102.855 -56.9643 0 
-114.666 -91.9212 0 
-73.8467 -75.6369 0 
-96.1409 -100.187 0 
-74.1314 -80.4443 0 
-115.599 -68.9749 0 
-120.994 -49.866 0 
-82.0165 -80.1388 0 
-136.786 -63.7606 0 
-109.744 -63.9848 0 
-93.2377 -70.497 0 
-134.927 -71.8168 0 
-85.7212 -64.4185 0 
-124.756 -55.249 0 
-100.196 -74.838 0 
-129.494 -59.0036 0 
-131.18 -57.0108 0 
-87.9248 -69.8157 0 
-103.858 -54.4382 0 
-128.746 -101.117 0 
-118.474 -54.552 0 
-144.991 -82.6444 0 
-100.83 -45.9002 0 
-65.3597 -76.8302 0 
-96.7078 -78.2118 0 
-80.4449 -71.2405 0 
-132.868 -74.2717 0 
-75.4935 -91.625 0 
-114.965 -66.3684 0 
-105.509 -51.9197 0 
-69.9288 -67.7268 0 
-87.0677 -63.8122 0 
-92.0896 -70.1093 0 
-77.0491 -73.711 0 
-82.0063 -69.4157 0 
-111.097 -68.7374 0 
-152.379 -46.4655 0 
-93.4103 -79.0283 0 
-85.8617 -60.6653 0 
-138.914 -29.346 0 
-100.637 -54.8709 0 
-117.48 -50.8664 0 
-101.884 -63.156 0 
-98.3504 -70.9052 0 
-86.101 -37.0054 0 
-147.201 -48.6916 0 
-110.801 -55.5997 0 
-109.225 -58.6652 0 
-101.332 -39.015 0 
-86.7135 -63.5826 0 
-94.318 -95.4221 0 
-99.1655 -76.8398 0 
-88.2197 -71.8237 0 
-130.742 -69.5658 0 
-89.5824 -80.3824 0 
-91.4696 -67.6411 0 
-84.9449 -77.4924 0 
-77.5587 -50.337 0 
-97.3004 -99.0664 0 
-95.8617 -65.7111 0 
-87.3669 -43.0599 0 
-136.494 -68.5137 0 
-97.9046 -70.8998 0 
-148.138 -20.339 0 
-88.6266 -97.1522 0 
-128.32 -42.377 0 
-125.847 -68.2655 0 
-105.103 -52.8664 0 
-77.8132 -76.8099 0 
-130.768 -79.7756 0 
-140.55 -48.6072 0 
-93.1884 -91.4954 0 
-160.178 -65.7666 0 
-92.9543 -66.1575 0 
-110.4 -41.3362 0 
-90.4023 -53.9304 0 
-120.075 -46.173 0 
-104.98 -50.2489 0 
-123.458 -63.3023 0 
-110.419 -11.3443 0 
-116.138 -15.2863 0 
-123.011 -47.8371 0 
-117.794 -61.9557 0 
-104.461 -41.6503 0 
-137.698 -32.6361 0 
-139.365 -64.8918 0 
-130.975 -61.6255 0 
-99.2022 -8.94806 0 
-91.1053 -53.8338 0 
-116.528 -57.7904 0 
-112.687 -61.4778 0 
-105.713 -40.3279 0 
-119.9 10.7701 0 
-103.062 -48.2273 0 
-129.254 -23.8256 0 
-97.2042 -56.1973 0 
-107.457 -37.9887 0 
-138.79 -51.7898 0 
-130.898 -23.1509 0 
-136.635 20.0308 0 
-133.214 -43.9761 0 
-131.909 -50.3434 0 
-122.802 -65.9719 0 
-79.8067 -64.2344 0 
-80.5613 -23.6661 0 
-81.4302 -39.6659 0 
-110.48 -32.8862 0 
-94.6272 -82.9731 0 
-106.03 -65.9835 0 
-133.923 16.7846 0 
-112.291 -40.7713 0 
-109.333 -37.2939 0 
-96.6798 -31.9203 0 
-110.624 -46.5996 0 
-124.513 -79.1719 0 
-117.911 -43.2776 0 
-125.231 -19.1756 0 
-130.532 -19.4787 0 
-91.8793 -52.5475 0 
-109.918 -51.7253 0 
-138.996 -41.9816 0 
-149.49 -19.2123 0 
-141.086 -5.89856 0 
-160.885 -3.86011 0 
-153.369 -34.9489 0 
-119.026 -32.6985 0 
-90.7616 29.9384 0 
-86.3945 -17.9161 0 
-105.354 -7.4215 0 
-123.338 -3.80561 0 
-115.375 -16.6624 0 
-84.3116 -13.633 0 
-111.797 -9.5538 0 
-99.2008 -15.7081 0 
-88.2934 26.5539 0 
-115.578 -6.27239 0 
-111.818 -46.993 0 
-102.519 28.6008 0 
-79.5859 -6.51714 0 
-110.834 -15.8998 0 
-110.228 2.22954 0 
-135.268 -6.9693 0 
-115.438 2.20642 0 
-102.794 -8.90555 0 
-93.5082 -4.84983 0 
-92.1765 -35.3729 0 
-111.198 -2.14991 0 
-101.229 2.70411 0 
-119.221 -18.5974 0 
-135.304 3.49831 0 
-111.454 -29.0209 0 
-123.17 -23.8084 0 
-148.46 -41.1272 0 
-101.347 -38.2641 0 
-103.214 23.5728 0 
-69.1877 15.6555 0 
-130.893 -36.318 0 
-118.805 -16.1026 0 
-87.0063 -15.0352 0 
-135.572 -13.1078 0 
-106.441 14.7984 0 
-102.746 16.7496 0 
-118.501 -54.3033 0 
-112.86 -55.6491 0 
-151.567 2.59872 0 
-97.3449 -36.1994 0 
-124.515 -16.7204 0 
-111.094 23.8976 0 
-115.409 -15.7216 0 
-84.0359 -8.46775 0 
-79.6658 -45.329 0 
-128.403 -10.1027 0 
-87.8988 -15.4132 0 
-112.163 11.4742 0 
-105.848 -2.45867 0 
-118.648 -35.9237 0 
-106.662 -14.5752 0 
-122.126 26.8077 0 
-108.059 -21.8336 0 
-94.4866 6.93031 0 
-131.442 -2.13753 0 
-139.33 -7.26186 0 
-133.395 -11.6101 0 
-98.0937 -50.8073 0 
-123.984 17.235 0 
-85.5631 -10.5932 0 
-93.8116 2.6077 0 
-157.37 -8.39366 0 
-106.527 9.8928 0 
-101.841 -5.38298 0 
-104.337 19.8171 0 
-89.6528 -2.2901 0 
-92.7868 24.8155 0 
-110.579 -36.2239 0 
-102.643 3.53072 0 
-116.175 -5.48159 0 
-111.756 -23.1511 0 
-103.351 19.6678 0 
-153.689 11.3299 0 
-102.962 -2.90339 0 
-126.313 8.39941 0 
-119.827 19.0145 0 
-153.956 -30.4377 0 